Siesta Version  : 4.1.5
Architecture    : unknown
Compiler version: GNU Fortran (GCC) 12.3.0
Compiler flags  : x86_64-apple-darwin13.4.0-gfortran -march=core2 -mtune=haswell -ftree-vectoriize -fPIC -fstack-protector -O2 -pipe  -fallow-argument-mismatch
PP flags        : -DFC_HAVE_ABORT -DCDF -DNCDF -DNCDF_4
Libraries       : libncdf.a libfdict.a -llapack -lblas -lnetcdff -lnetcdf -lhdf5_hl -lhdf5 -lz
SERIAL version
NetCDF support
NetCDF-4 support

* Running in serial mode
>> Start of run:  15-MAR-2024  10:25:16

                           ***********************       
                           *  WELCOME TO SIESTA  *       
                           ***********************       

reinit: Reading from xoc.fdf

reinit: -----------------------------------------------------------------------
reinit: System Name: H2 + O2 -> H2O2 reaction
reinit: -----------------------------------------------------------------------
reinit: System Label: xoc
reinit: -----------------------------------------------------------------------

initatom: Reading input for the pseudopotentials and atomic orbitals ----------
Species number:   1 Atomic number:    8 Label: O
Species number:   2 Atomic number:    1 Label: H

Ground state valence configuration:   2s02  2p04
Reading pseudopotential information in formatted form from O.psf

Pseudopotential generated from a relativistic atomic calculation

Valence configuration for pseudopotential generation:
2s( 2.00) rc: 1.14
2p( 4.00) rc: 1.14
3d( 0.00) rc: 1.14
4f( 0.00) rc: 1.14
Ground state valence configuration:   1s01
Reading pseudopotential information in unformatted form from H.vps

Valence configuration for pseudopotential generation:
1s( 1.00) rc: 1.25
2p( 0.00) rc: 1.25
3d( 0.00) rc: 1.25
4f( 0.00) rc: 1.25
For O, standard SIESTA heuristics set lmxkb to 3
 (one more than the basis l, including polarization orbitals).
Use PS.lmax or PS.KBprojectors blocks to override.
For H, standard SIESTA heuristics set lmxkb to 2
 (one more than the basis l, including polarization orbitals).
Use PS.lmax or PS.KBprojectors blocks to override.

<basis_specs>
===============================================================================
O                    Z=   8    Mass=  16.000        Charge=-0.18518    
Lmxo=2 Lmxkb= 3    BasisType=split      Semic=F
L=0  Nsemic=0  Cnfigmx=2
          i=1  nzeta=2  polorb=0  (2s)
            splnorm:   0.15000    
               vcte:    87.074    
               rinn:    4.7393    
               qcoe:    0.0000    
               qyuk:    0.0000    
               qwid:   0.10000E-01
                rcs:    7.3294      4.6037    
            lambdas:    1.0000      1.0000    
L=1  Nsemic=0  Cnfigmx=2
          i=1  nzeta=2  polorb=0  (2p)
            splnorm:   0.15000    
               vcte:    68.296    
               rinn:    4.9704    
               qcoe:    0.0000    
               qyuk:    0.0000    
               qwid:   0.10000E-01
                rcs:    6.6025      3.0467    
            lambdas:    1.0000      1.0000    
L=2  Nsemic=0  Cnfigmx=3
          i=1  nzeta=1  polorb=0  (3d)
            splnorm:   0.15000    
               vcte:    91.071    
               rinn:    3.9512    
               qcoe:    0.0000    
               qyuk:    0.0000    
               qwid:   0.10000E-01
                rcs:    6.8934    
            lambdas:    1.0000    
-------------------------------------------------------------------------------
L=0  Nkbl=1  erefs: 0.17977+309
L=1  Nkbl=1  erefs: 0.17977+309
L=2  Nkbl=1  erefs: 0.17977+309
L=3  Nkbl=1  erefs: 0.17977+309
===============================================================================
</basis_specs>

atom: Called for O                     (Z =   8)

read_vps: Pseudopotential generation method:
read_vps: ATM3      Troullier-Martins                       
Valence charge for ps generation:    6.00000

read_vps: Pseudopotential includes a core correction:
read_vps: Pseudo-core for xc-correction

xc_check: Exchange-correlation functional:
xc_check: GGA Perdew, Burke & Ernzerhof 1996
V l=0 = -2*Zval/r beyond r=  1.1278
V l=1 = -2*Zval/r beyond r=  1.1278
V l=2 = -2*Zval/r beyond r=  1.1278
V l=3 = -2*Zval/r beyond r=  1.1278
All V_l potentials equal beyond r=  1.1278
This should be close to max(r_c) in ps generation
All pots = -2*Zval/r beyond r=  1.1278

VLOCAL1: 99.0% of the norm of Vloc inside     34.126 Ry
VLOCAL1: 99.9% of the norm of Vloc inside     77.774 Ry
atom: Maximum radius for 4*pi*r*r*local-pseudopot. charge    1.37759
atom: Maximum radius for r*vlocal+2*Zval:    1.18566
GHOST: No ghost state for L =  0
GHOST: No ghost state for L =  1
GHOST: No ghost state for L =  2
GHOST: No ghost state for L =  3

KBgen: Kleinman-Bylander projectors: 
   l= 0   rc=  1.360471   el= -1.759790   Ekb=  9.210761   kbcos=  0.328866
   l= 1   rc=  1.360471   el= -0.663797   Ekb= -7.921990   kbcos= -0.392961
   l= 2   rc=  1.791199   el=  0.002031   Ekb= -1.950550   kbcos= -0.003498
   l= 3   rc=  2.107308   el=  0.003153   Ekb= -0.856060   kbcos= -0.000334

KBgen: Total number of Kleinman-Bylander projectors:   16
atom: -------------------------------------------------------------------------

atom: SANKEY-TYPE ORBITALS:
atom: Selected multiple-zeta basis: split     

atom: basis set generated (by rescaling the valence charge)
atom: for an anion of charge  -0.1852

SPLIT: Orbitals with angular momentum L= 0

SPLIT: Basis orbitals for state 2s

   izeta = 1
                 lambda =    1.000000
                     rc =    7.356000
                 energy =   -1.758588
                kinetic =    1.491851
    potential(screened) =   -3.250439
       potential(ionic) =  -11.062471

   izeta = 2
                 rmatch =    4.690281
              splitnorm =    0.003309
                 energy =   -1.757602
* WARNING: effective split_norm is quite small. Orbitals will be very similar.
                kinetic =    1.574378
    potential(screened) =   -3.331980
       potential(ionic) =  -11.238433

SPLIT: Orbitals with angular momentum L= 1

SPLIT: Basis orbitals for state 2p

   izeta = 1
                 lambda =    1.000000
                     rc =    6.655955
                 energy =   -0.659921
                kinetic =    4.410674
    potential(screened) =   -5.070596
       potential(ionic) =  -12.498772

   izeta = 2
                 rmatch =    3.066256
              splitnorm =    0.127283
                 energy =   -0.537509
                kinetic =    6.271972
    potential(screened) =   -6.809481
       potential(ionic) =  -15.130217

SPLIT: Orbitals with angular momentum L= 2

SPLIT: Basis orbitals for state 3d

   izeta = 1
                 lambda =    1.000000
                     rc =    6.997229
                 energy =    0.764795
                kinetic =    1.136799
    potential(screened) =   -0.372004
       potential(ionic) =   -3.984199
atom: Total number of Sankey-type orbitals: 13

atm_pop: Valence configuration (for local Pseudopot. screening):
 2s( 2.00)                                                            
 2p( 4.00)                                                            
 3d( 0.00)                                                            
Vna: chval, zval:    6.00000   6.00000

Vna:  Cut-off radius for the neutral-atom potential:   7.356000
comcore: Pseudo-core radius Rcore=  1.377587

atom: _________________________________________________________________________

<basis_specs>
===============================================================================
H                    Z=   1    Mass=  1.0100        Charge= 0.22000    
Lmxo=1 Lmxkb= 2    BasisType=split      Semic=F
L=0  Nsemic=0  Cnfigmx=1
          i=1  nzeta=2  polorb=0  (1s)
            splnorm:   0.15000    
               vcte:    2.0700    
               rinn:    0.0000    
               qcoe:    0.0000    
               qyuk:    0.0000    
               qwid:   0.10000E-01
                rcs:    4.9710      1.7710    
            lambdas:    1.0000      1.0000    
L=1  Nsemic=0  Cnfigmx=2
          i=1  nzeta=1  polorb=0  (2p)
            splnorm:   0.15000    
               vcte:   0.89000    
               rinn:   0.10000E-01
               qcoe:    0.0000    
               qyuk:    0.0000    
               qwid:   0.10000E-01
                rcs:    4.9880    
            lambdas:    1.0000    
-------------------------------------------------------------------------------
L=0  Nkbl=1  erefs: 0.17977+309
L=1  Nkbl=1  erefs: 0.17977+309
L=2  Nkbl=1  erefs: 0.17977+309
===============================================================================
</basis_specs>

atom: Called for H                     (Z =   1)

read_vps: Pseudopotential generation method:
read_vps: ATM3      Troullier-Martins                       
Valence charge for ps generation:    1.00000

xc_check: Exchange-correlation functional:
xc_check: GGA Perdew, Burke & Ernzerhof 1996
V l=0 = -2*Zval/r beyond r=  1.2343
V l=1 = -2*Zval/r beyond r=  1.2189
V l=2 = -2*Zval/r beyond r=  1.2189
All V_l potentials equal beyond r=  1.2343
This should be close to max(r_c) in ps generation
All pots = -2*Zval/r beyond r=  1.2343

VLOCAL1: 99.0% of the norm of Vloc inside     28.493 Ry
VLOCAL1: 99.9% of the norm of Vloc inside     64.935 Ry
atom: Maximum radius for 4*pi*r*r*local-pseudopot. charge    1.45251
atom: Maximum radius for r*vlocal+2*Zval:    1.21892
GHOST: No ghost state for L =  0
GHOST: No ghost state for L =  1
GHOST: No ghost state for L =  2

KBgen: Kleinman-Bylander projectors: 
   l= 0   rc=  1.364359   el= -0.477200   Ekb= -2.021939   kbcos= -0.344793
   l= 1   rc=  1.434438   el=  0.001076   Ekb= -0.443447   kbcos= -0.022843
   l= 2   rc=  1.470814   el=  0.002010   Ekb= -0.140543   kbcos= -0.002863

KBgen: Total number of Kleinman-Bylander projectors:    9
atom: -------------------------------------------------------------------------

atom: SANKEY-TYPE ORBITALS:
atom: Selected multiple-zeta basis: split     

atom: basis set generated (by rescaling the valence charge)
atom: for a cation of charge   0.2200

SPLIT: Orbitals with angular momentum L= 0

SPLIT: Basis orbitals for state 1s

   izeta = 1
                 lambda =    1.000000
                     rc =    4.950554
                 energy =   -0.678603
                kinetic =    1.118239
    potential(screened) =   -1.796842
       potential(ionic) =   -2.106311

   izeta = 2
                 rmatch =    1.774652
              splitnorm =    0.672347
                 energy =    1.027037
                kinetic =    4.730146
    potential(screened) =   -3.703109
       potential(ionic) =   -3.968059

SPLIT: Orbitals with angular momentum L= 1

SPLIT: Basis orbitals for state 2p

   izeta = 1
                 lambda =    1.000000
                     rc =    5.075940
                 energy =    0.310352
                kinetic =    0.887169
    potential(screened) =   -0.576817
       potential(ionic) =   -0.872649
atom: Total number of Sankey-type orbitals:  5

atm_pop: Valence configuration (for local Pseudopot. screening):
 1s( 1.00)                                                            
 2p( 0.00)                                                            
Vna: chval, zval:    1.00000   1.00000

Vna:  Cut-off radius for the neutral-atom potential:   4.950554

atom: _________________________________________________________________________

prinput: Basis input ----------------------------------------------------------

PAO.BasisType split     

%block ChemicalSpeciesLabel
    1    8 O                       # Species index, atomic number, species label
    2    1 H                       # Species index, atomic number, species label
%endblock ChemicalSpeciesLabel

%block PAO.Basis                 # Define Basis set
O                     3  -0.185            # Label, l-shells, ionic net charge
 n=2   0   2                         # n, l, Nzeta 
   7.356      4.690   
   1.000      1.000   
 n=2   1   2                         # n, l, Nzeta 
   6.656      3.066   
   1.000      1.000   
 n=3   2   1                         # n, l, Nzeta 
   6.997   
   1.000   
H                     2   0.220            # Label, l-shells, ionic net charge
 n=1   0   2                         # n, l, Nzeta 
   4.951      1.775   
   1.000      1.000   
 n=2   1   1                         # n, l, Nzeta 
   5.076   
   1.000   
%endblock PAO.Basis

prinput: ----------------------------------------------------------------------

Dumping basis to NetCDF file O.ion.nc
Dumping basis to NetCDF file H.ion.nc
coor:   Atomic-coordinates input format  =     Cartesian coordinates
coor:                                          (in Angstroms)

ioxv: Reading coordinates and velocities from file
! Info in XV file prevails over previous structure input
WARNING: xoc.VERLET_RESTART not found--reading only XV file and moving back 1 time step using Euler

siesta: Atomic coordinates (Bohr) and species
siesta:      2.54735  -0.00100  -0.00070  1        1
siesta:      5.01155  -0.00100  -0.00070  1        2
siesta:     12.94052   0.01600   0.01130  2        3
siesta:     14.34566   0.01600   0.01130  2        4

siesta: System type = chain     

initatomlists: Number of atoms, orbitals, and projectors:      4    36    50

coxmol: Writing XMOL coordinates into file xoc.xyz                                                             

siesta: ******************** Simulation parameters ****************************
siesta:
siesta: The following are some of the parameters of the simulation.
siesta: A complete list of the parameters used, including default values,
siesta: can be found in file out.fdf
siesta:
redata: Spin configuration                          = none
redata: Number of spin components                   = 1
redata: Time-Reversal Symmetry                      = T
redata: Spin spiral                                 = F
redata: Long output                                 =   F
redata: Number of Atomic Species                    =        2
redata: Charge density info will appear in .RHO file
redata: Write Mulliken Pop.                         = NO
redata: Matel table size (NRTAB)                    =     1024
redata: Mesh Cutoff                                 =   200.0000 Ry
redata: Net charge of the system                    =     0.0000 |e|
redata: Min. number of SCF Iter                     =        0
redata: Max. number of SCF Iter                     =      150
redata: SCF convergence failure will abort job
redata: SCF mix quantity                            = Hamiltonian
redata: Mix DM or H after convergence               =   F
redata: Recompute H after scf cycle                 =   F
redata: Mix DM in first SCF step                    =   T
redata: Write Pulay info on disk                    =   F
redata: New DM Occupancy tolerance                  = 0.000000000001
redata: No kicks to SCF
redata: DM Mixing Weight for Kicks                  =     0.5000
redata: Require Harris convergence for SCF          =   F
redata: Harris energy tolerance for SCF             =     0.000100 eV
redata: Require DM convergence for SCF              =   T
redata: DM tolerance for SCF                        =     0.000300
redata: Require EDM convergence for SCF             =   F
redata: EDM tolerance for SCF                       =     0.001000 eV
redata: Require H convergence for SCF               =   T
redata: Hamiltonian tolerance for SCF               =     0.001000 eV
redata: Require (free) Energy convergence for SCF   =   F
redata: (free) Energy tolerance for SCF             =     0.000100 eV
redata: Using Saved Data (generic)                  =   F
redata: Use continuation files for DM               =   F
redata: Neglect nonoverlap interactions             =   F
redata: Method of Calculation                       = Diagonalization
redata: Electronic Temperature                      =   290.1109 K
redata: Fix the spin of the system                  =   F
redata: Dynamics option                             = Verlet MD run
redata: Initial MD time step                        =        1
redata:   Final MD time step                        =      100
redata: Length of MD time step                      =     1.0000 fs
redata: Initial Temperature of MD run               =     0.0000 K
redata: Perform a MD quench                         =   F
mix.SCF: Pulay mixing                            = Pulay
mix.SCF:    Variant                              = stable
mix.SCF:    History steps                        = 6
mix.SCF:    Linear mixing weight                 =     0.020000
mix.SCF:    Mixing weight                        =     0.020000
mix.SCF:    SVD condition                        = 0.1000E-07
redata: Save all siesta data in one NC              =   F
redata: ***********************************************************************

%block SCF.Mixers
  Pulay
%endblock SCF.Mixers

%block SCF.Mixer.Pulay
  # Mixing method
  method pulay
  variant stable

  # Mixing options
  weight 0.0200
  weight.linear 0.0200
  history 6
%endblock SCF.Mixer.Pulay

Size of DM history Fstack: 1
Total number of electrons:    14.000000
Total ionic charge:    14.000000
 Kpoints in:            1 . Kpoints trimmed:            1

siesta: k-grid: Number of k-points =     1
siesta: k-grid: Cutoff (effective) =     5.000 Ang
siesta: k-grid: Supercell and displacements
siesta: k-grid:    1   0   0      0.000
siesta: k-grid:    0   1   0      0.000
siesta: k-grid:    0   0   1      0.000

diag: Algorithm                                     = D&C
diag: Used triangular part                          = Lower
diag: Absolute tolerance                            =  0.100E-15
diag: Orthogonalization factor                      =  0.100E-05
diag: Memory factor                                 =  1.0000


ts: **************************************************************
ts: Save H and S matrices                           =    F
ts: Save DM and EDM matrices                        =    F
ts: Only save the overlap matrix S                  =    F
ts: **************************************************************

************************ Begin: TS CHECKS AND WARNINGS ************************
************************ End: TS CHECKS AND WARNINGS **************************


                     ====================================
                        Begin MD step =      1
                     ====================================

outcell: Unit cell vectors (Ang):
       10.000000    0.000000    0.000000
        0.000000   10.000000    0.000000
        0.000000    0.000000   10.000000

outcell: Cell vector modules (Ang)   :   10.000000   10.000000   10.000000
outcell: Cell angles (23,13,12) (deg):     90.0000     90.0000     90.0000
outcell: Cell volume (Ang**3)        :   1000.0000
Gamma-point calculation with multiply-connected orbital pairs
Gamma-point calculation with multiply-connected orbital pairs
Folding of H and S implicitly performed
Folding of H and S implicitly performed
<dSpData1D:S at geom step 1
  <sparsity:sparsity for geom step 1
    nrows_g=36 nrows=36 sparsity=.9522 nnzs=1234, refcount: 7>
  <dData1D:(new from dSpData1D) n=1234, refcount: 1>
refcount: 1>
new_DM -- step:     1
Initializing Density Matrix...
DM filled with atomic data:
<dSpData2D:DM initialized from atoms
  <sparsity:sparsity for geom step 1
    nrows_g=36 nrows=36 sparsity=.9522 nnzs=1234, refcount: 8>
  <dData2D:DM n=1234 m=1, refcount: 1>
refcount: 1>
No. of atoms with KB's overlaping orbs in proc 0. Max # of overlaps:       4      29
New grid distribution:   1
           1       1:   45    1:   45    1:   45

InitMesh: MESH =    90 x    90 x    90 =      729000
InitMesh: (bp) =    45 x    45 x    45 =       91125
InitMesh: Mesh cutoff (required, used) =   200.000   223.865 Ry
ExtMesh (bp) on 0 =   117 x   117 x   117 =     1601613
PhiOnMesh: Number of (b)points on node 0 =                91125
PhiOnMesh: nlist on node 0 =               451185

stepf: Fermi-Dirac step function

siesta: Program's energy decomposition (eV):
siesta: Ebs     =      -190.948608
siesta: Eions   =      1592.294315
siesta: Ena     =       380.201806
siesta: Ekin    =       663.410567
siesta: Enl     =      -100.295344
siesta: Eso     =         0.000000
siesta: Edftu   =         0.000000
siesta: DEna    =       -43.048668
siesta: DUscf   =         3.005361
siesta: DUext   =         0.000000
siesta: Exc     =      -210.895422
siesta: eta*DQ  =         0.000000
siesta: Emadel  =         0.000000
siesta: Emeta   =         0.000000
siesta: Emolmec =         0.000000
siesta: Ekinion =         0.000000
siesta: Eharris =      -900.674553
siesta: Etot    =      -899.916014
siesta: FreeEng =      -899.985329

        iscf     Eharris(eV)        E_KS(eV)     FreeEng(eV)     dDmax    Ef(eV) dHmax(eV)
   scf:    1     -900.674553     -899.916014     -899.985329  3.413249 -9.442729  4.724946
timer: Routine,Calls,Time,% = IterSCF        1       2.380  50.07
   scf:    2     -899.998081     -899.957173     -900.026488  0.062554 -9.352686  4.566441
   scf:    3     -900.969105     -900.591007     -900.660322  2.454578 -6.787065  0.575318
   scf:    4     -900.031561     -900.361033     -900.430348  1.904736 -5.438014  3.263677
   scf:    5     -900.730574     -900.602649     -900.671963  1.683961 -6.849873  0.053052
   scf:    6     -900.602630     -900.602642     -900.671957  0.012678 -6.838783  0.049504
   scf:    7     -900.588048     -900.596797     -900.666112  0.261050 -7.079615  0.509217
   scf:    8     -900.606462     -900.602575     -900.671889  0.194281 -6.879776  0.085344
   scf:    9     -900.602816     -900.602705     -900.672020  0.012399 -6.860707  0.044299
   scf:   10     -900.602765     -900.602749     -900.672064  0.022965 -6.836879  0.010937
   scf:   11     -900.602746     -900.602749     -900.672063  0.004398 -6.840224  0.003153
   scf:   12     -900.602749     -900.602749     -900.672064  0.000427 -6.839473  0.001741
   scf:   13     -900.602751     -900.602751     -900.672065  0.001085 -6.838942  0.000087
   scf:   14     -900.602751     -900.602751     -900.672065  0.000005 -6.838937  0.000087

SCF Convergence by DM+H criterion
max |DM_out - DM_in|         :     0.0000046508
max |H_out - H_in|      (eV) :     0.0000865977
SCF cycle converged after 14 iterations

Using DM_out to compute the final energy and forces
No. of atoms with KB's overlaping orbs in proc 0. Max # of overlaps:       4      29

siesta: E_KS(eV) =             -900.6028

siesta: E_KS - E_eggbox =      -900.6028

siesta: Atomic forces (eV/Ang):
----------------------------------------
   Tot    0.000391    0.000555    0.000431
----------------------------------------
   Max    0.103921
   Res    0.042733    sqrt( Sum f_i^2 / 3N )
----------------------------------------
   Max    0.103921    constrained

Stress tensor Voigt[x,y,z,yz,xz,xy] (kbar):      -16.32       -0.42       -0.25       -0.10        0.05        0.26
(Free)E + p*V (eV/cell)     -897.1396
Target enthalpy (eV/cell)     -900.6721

siesta: Stress tensor (static) (eV/Ang**3):
         0.000014   -0.000000   -0.000000
        -0.000000    0.000006    0.000000
        -0.000000    0.000000    0.000006

siesta: Pressure (static):         -0.01370079  kBar

siesta: Stress tensor (total) (eV/Ang**3):
        -0.010184    0.000163    0.000029
         0.000163   -0.000259   -0.000060
         0.000029   -0.000060   -0.000154

siesta: Pressure (total):          5.65977400  kBar

siesta: Temp_ion =   13797.487 K

                     ====================================
                        Begin MD step =      2
                     ====================================

outcell: Unit cell vectors (Ang):
       10.000000    0.000000    0.000000
        0.000000   10.000000    0.000000
        0.000000    0.000000   10.000000

outcell: Cell vector modules (Ang)   :   10.000000   10.000000   10.000000
outcell: Cell angles (23,13,12) (deg):     90.0000     90.0000     90.0000
outcell: Cell volume (Ang**3)        :   1000.0000
Gamma-point calculation with multiply-connected orbital pairs
Gamma-point calculation with multiply-connected orbital pairs
Folding of H and S implicitly performed
Folding of H and S implicitly performed
<dSpData1D:S at geom step 2
  <sparsity:sparsity for geom step 2
    nrows_g=36 nrows=36 sparsity=.9383 nnzs=1216, refcount: 7>
  <dData1D:(new from dSpData1D) n=1216, refcount: 1>
refcount: 1>
new_DM -- step:     2
Re-using DM from previous geometries...
Number of DMs in history: 1
 DM extrapolation coefficients: 
1   1.00000
New DM after history re-use:
<dSpData2D:SpM extrapolated using coords
  <sparsity:sparsity for geom step 2
    nrows_g=36 nrows=36 sparsity=.9383 nnzs=1216, refcount: 9>
  <dData2D:(temp array for extrapolation) n=1216 m=1, refcount: 1>
refcount: 1>
Note: For starting DM, Qtot, Tr[D*S] =         14.00000000         14.01600250
No. of atoms with KB's overlaping orbs in proc 0. Max # of overlaps:       4      26
New grid distribution:   1
           1       1:   45    1:   45    1:   45

InitMesh: MESH =    90 x    90 x    90 =      729000
InitMesh: (bp) =    45 x    45 x    45 =       91125
InitMesh: Mesh cutoff (required, used) =   200.000   223.865 Ry
ExtMesh (bp) on 0 =   117 x   117 x   117 =     1601613
PhiOnMesh: Number of (b)points on node 0 =                91125
PhiOnMesh: nlist on node 0 =               451289

        iscf     Eharris(eV)        E_KS(eV)     FreeEng(eV)     dDmax    Ef(eV) dHmax(eV)
   scf:    1     -900.466194     -900.593284     -900.662599  0.185870 -6.884128  0.180010
   scf:    2     -900.592617     -900.593523     -900.662831  0.196876 -6.723593  0.171658
   scf:    3     -900.594372     -900.594054     -900.663367  0.081479 -6.789394  0.026846
   scf:    4     -900.594009     -900.594080     -900.663393  0.008919 -6.785329  0.019018
   scf:    5     -900.594109     -900.594105     -900.663420  0.004191 -6.788125  0.018734
   scf:    6     -900.594065     -900.594090     -900.663404  0.021883 -6.771109  0.032976
   scf:    7     -900.594051     -900.594092     -900.663406  0.030994 -6.797026  0.034969
   scf:    8     -900.594125     -900.594112     -900.663427  0.012252 -6.784716  0.006139
   scf:    9     -900.594113     -900.594113     -900.663428  0.001766 -6.782817  0.000094
   scf:   10     -900.594113     -900.594113     -900.663428  0.000018 -6.782816  0.000093

SCF Convergence by DM+H criterion
max |DM_out - DM_in|         :     0.0000178760
max |H_out - H_in|      (eV) :     0.0000930638
SCF cycle converged after 10 iterations

Using DM_out to compute the final energy and forces
No. of atoms with KB's overlaping orbs in proc 0. Max # of overlaps:       4      26

siesta: E_KS(eV) =             -900.5941

siesta: Atomic forces (eV/Ang):
----------------------------------------
   Tot    0.000464    0.000529    0.000320
----------------------------------------
   Max    0.627675
   Res    0.337992    sqrt( Sum f_i^2 / 3N )
----------------------------------------
   Max    0.627675    constrained

Stress tensor Voigt[x,y,z,yz,xz,xy] (kbar):      -18.07       -0.42       -0.25       -0.10        0.00        0.22
(Free)E + p*V (eV/cell)     -896.7658
Target enthalpy (eV/cell)     -900.6634

siesta: Stress tensor (static) (eV/Ang**3):
        -0.001078   -0.000029   -0.000027
        -0.000029    0.000005   -0.000001
        -0.000027   -0.000001    0.000004

siesta: Pressure (static):          0.57131225  kBar

siesta: Stress tensor (total) (eV/Ang**3):
        -0.011276    0.000135    0.000002
         0.000135   -0.000261   -0.000061
         0.000002   -0.000061   -0.000156

siesta: Pressure (total):          6.24478705  kBar

siesta: Temp_ion =   13778.958 K

                     ====================================
                        Begin MD step =      3
                     ====================================

outcell: Unit cell vectors (Ang):
       10.000000    0.000000    0.000000
        0.000000   10.000000    0.000000
        0.000000    0.000000   10.000000

outcell: Cell vector modules (Ang)   :   10.000000   10.000000   10.000000
outcell: Cell angles (23,13,12) (deg):     90.0000     90.0000     90.0000
outcell: Cell volume (Ang**3)        :   1000.0000
Gamma-point calculation with multiply-connected orbital pairs
Gamma-point calculation with multiply-connected orbital pairs
Folding of H and S implicitly performed
Folding of H and S implicitly performed
<dSpData1D:S at geom step 3
  <sparsity:sparsity for geom step 3
    nrows_g=36 nrows=36 sparsity=.9522 nnzs=1234, refcount: 7>
  <dData1D:(new from dSpData1D) n=1234, refcount: 1>
refcount: 1>
new_DM -- step:     3
Re-using DM from previous geometries...
Number of DMs in history: 1
 DM extrapolation coefficients: 
1   1.00000
New DM after history re-use:
<dSpData2D:SpM extrapolated using coords
  <sparsity:sparsity for geom step 3
    nrows_g=36 nrows=36 sparsity=.9522 nnzs=1234, refcount: 9>
  <dData2D:(temp array for extrapolation) n=1234 m=1, refcount: 1>
refcount: 1>
No. of atoms with KB's overlaping orbs in proc 0. Max # of overlaps:       4      29
New grid distribution:   1
           1       1:   45    1:   45    1:   45

InitMesh: MESH =    90 x    90 x    90 =      729000
InitMesh: (bp) =    45 x    45 x    45 =       91125
InitMesh: Mesh cutoff (required, used) =   200.000   223.865 Ry
ExtMesh (bp) on 0 =   117 x   117 x   117 =     1601613
PhiOnMesh: Number of (b)points on node 0 =                91125
PhiOnMesh: nlist on node 0 =               451282

        iscf     Eharris(eV)        E_KS(eV)     FreeEng(eV)     dDmax    Ef(eV) dHmax(eV)
   scf:    1     -900.417666     -900.587975     -900.657290  0.265961 -6.725909  0.072736
   scf:    2     -900.587444     -900.587952     -900.657252  0.077420 -6.735992  0.064709
   scf:    3     -900.588362     -900.588212     -900.657525  0.031658 -6.731838  0.023454
   scf:    4     -900.588136     -900.588243     -900.657555  0.010343 -6.732361  0.008900
   scf:    5     -900.588275     -900.588275     -900.657589  0.003937 -6.732102  0.002461
   scf:    6     -900.588273     -900.588274     -900.657589  0.002944 -6.732049  0.003579
   scf:    7     -900.588276     -900.588275     -900.657590  0.001011 -6.731197  0.000657
   scf:    8     -900.588275     -900.588275     -900.657590  0.000507 -6.731263  0.000243
   scf:    9     -900.588275     -900.588275     -900.657590  0.000048 -6.731288  0.000172

SCF Convergence by DM+H criterion
max |DM_out - DM_in|         :     0.0000481402
max |H_out - H_in|      (eV) :     0.0001717536
SCF cycle converged after 9 iterations

Using DM_out to compute the final energy and forces
No. of atoms with KB's overlaping orbs in proc 0. Max # of overlaps:       4      29

siesta: E_KS(eV) =             -900.5883

siesta: Atomic forces (eV/Ang):
----------------------------------------
   Tot    0.000472    0.000128   -0.000087
----------------------------------------
   Max    1.130380
   Res    0.509387    sqrt( Sum f_i^2 / 3N )
----------------------------------------
   Max    1.130380    constrained

Stress tensor Voigt[x,y,z,yz,xz,xy] (kbar):      -19.05       -0.43       -0.26       -0.11       -0.05        0.12
(Free)E + p*V (eV/cell)     -896.5514
Target enthalpy (eV/cell)     -900.6576

siesta: Stress tensor (static) (eV/Ang**3):
        -0.001708   -0.000073   -0.000050
        -0.000073    0.000000   -0.000005
        -0.000050   -0.000005   -0.000002

siesta: Pressure (static):          0.91313043  kBar

siesta: Stress tensor (total) (eV/Ang**3):
        -0.011888    0.000077   -0.000033
         0.000076   -0.000266   -0.000067
        -0.000033   -0.000067   -0.000165

siesta: Pressure (total):          6.57898634  kBar

siesta: Temp_ion =   13763.926 K

                     ====================================
                        Begin MD step =      4
                     ====================================

outcell: Unit cell vectors (Ang):
       10.000000    0.000000    0.000000
        0.000000   10.000000    0.000000
        0.000000    0.000000   10.000000

outcell: Cell vector modules (Ang)   :   10.000000   10.000000   10.000000
outcell: Cell angles (23,13,12) (deg):     90.0000     90.0000     90.0000
outcell: Cell volume (Ang**3)        :   1000.0000
Gamma-point calculation with multiply-connected orbital pairs
Gamma-point calculation with multiply-connected orbital pairs
Folding of H and S implicitly performed
Folding of H and S implicitly performed
<dSpData1D:S at geom step 4
  <sparsity:sparsity for geom step 4
    nrows_g=36 nrows=36 sparsity=.9475 nnzs=1228, refcount: 7>
  <dData1D:(new from dSpData1D) n=1228, refcount: 1>
refcount: 1>
new_DM -- step:     4
Re-using DM from previous geometries...
Number of DMs in history: 1
 DM extrapolation coefficients: 
1   1.00000
New DM after history re-use:
<dSpData2D:SpM extrapolated using coords
  <sparsity:sparsity for geom step 4
    nrows_g=36 nrows=36 sparsity=.9475 nnzs=1228, refcount: 9>
  <dData2D:(temp array for extrapolation) n=1228 m=1, refcount: 1>
refcount: 1>
No. of atoms with KB's overlaping orbs in proc 0. Max # of overlaps:       4      30
New grid distribution:   1
           1       1:   45    1:   45    1:   45

InitMesh: MESH =    90 x    90 x    90 =      729000
InitMesh: (bp) =    45 x    45 x    45 =       91125
InitMesh: Mesh cutoff (required, used) =   200.000   223.865 Ry
ExtMesh (bp) on 0 =   117 x   117 x   117 =     1601613
PhiOnMesh: Number of (b)points on node 0 =                91125
PhiOnMesh: nlist on node 0 =               451238

        iscf     Eharris(eV)        E_KS(eV)     FreeEng(eV)     dDmax    Ef(eV) dHmax(eV)
   scf:    1     -900.384708     -900.586090     -900.655403  0.364988 -6.576822  0.229507
   scf:    2     -900.580613     -900.584915     -900.654130  0.078332 -6.758078  0.255242
   scf:    3     -900.587876     -900.586763     -900.656060  0.033153 -6.682182  0.046508
   scf:    4     -900.586394     -900.586914     -900.656218  0.019080 -6.685990  0.027127
   scf:    5     -900.586982     -900.587036     -900.656351  0.010199 -6.689607  0.019432
   scf:    6     -900.586939     -900.587004     -900.656318  0.004507 -6.698527  0.039794
   scf:    7     -900.587052     -900.587050     -900.656365  0.018562 -6.685036  0.008990
   scf:    8     -900.587051     -900.587051     -900.656366  0.003131 -6.688089  0.003067
   scf:    9     -900.587052     -900.587052     -900.656367  0.000743 -6.688609  0.000407
   scf:   10     -900.587052     -900.587052     -900.656367  0.000082 -6.688640  0.000327

SCF Convergence by DM+H criterion
max |DM_out - DM_in|         :     0.0000820846
max |H_out - H_in|      (eV) :     0.0003273113
SCF cycle converged after 10 iterations

Using DM_out to compute the final energy and forces
No. of atoms with KB's overlaping orbs in proc 0. Max # of overlaps:       4      30

siesta: E_KS(eV) =             -900.5871

siesta: Atomic forces (eV/Ang):
----------------------------------------
   Tot   -0.000516   -0.000435   -0.000450
----------------------------------------
   Max    1.552594
   Res    0.630004    sqrt( Sum f_i^2 / 3N )
----------------------------------------
   Max    1.552594    constrained

Stress tensor Voigt[x,y,z,yz,xz,xy] (kbar):      -19.22       -0.43       -0.26       -0.10        0.02        0.08
(Free)E + p*V (eV/cell)     -896.5143
Target enthalpy (eV/cell)     -900.6564

siesta: Stress tensor (static) (eV/Ang**3):
        -0.001839   -0.000068    0.000020
        -0.000068    0.000002    0.000002
         0.000020    0.000002    0.000008

siesta: Pressure (static):          0.97672162  kBar

siesta: Stress tensor (total) (eV/Ang**3):
        -0.011998    0.000049    0.000011
         0.000049   -0.000267   -0.000064
         0.000011   -0.000064   -0.000161

siesta: Pressure (total):          6.63639658  kBar

siesta: Temp_ion =   13757.386 K

                     ====================================
                        Begin MD step =      5
                     ====================================

outcell: Unit cell vectors (Ang):
       10.000000    0.000000    0.000000
        0.000000   10.000000    0.000000
        0.000000    0.000000   10.000000

outcell: Cell vector modules (Ang)   :   10.000000   10.000000   10.000000
outcell: Cell angles (23,13,12) (deg):     90.0000     90.0000     90.0000
outcell: Cell volume (Ang**3)        :   1000.0000
Gamma-point calculation with multiply-connected orbital pairs
Gamma-point calculation with multiply-connected orbital pairs
Folding of H and S implicitly performed
Folding of H and S implicitly performed
<dSpData1D:S at geom step 5
  <sparsity:sparsity for geom step 5
    nrows_g=36 nrows=36 sparsity=.9414 nnzs=1220, refcount: 7>
  <dData1D:(new from dSpData1D) n=1220, refcount: 1>
refcount: 1>
new_DM -- step:     5
Re-using DM from previous geometries...
Number of DMs in history: 1
 DM extrapolation coefficients: 
1   1.00000
New DM after history re-use:
<dSpData2D:SpM extrapolated using coords
  <sparsity:sparsity for geom step 5
    nrows_g=36 nrows=36 sparsity=.9414 nnzs=1220, refcount: 9>
  <dData2D:(temp array for extrapolation) n=1220 m=1, refcount: 1>
refcount: 1>
No. of atoms with KB's overlaping orbs in proc 0. Max # of overlaps:       4      30
New grid distribution:   1
           1       1:   45    1:   45    1:   45

InitMesh: MESH =    90 x    90 x    90 =      729000
InitMesh: (bp) =    45 x    45 x    45 =       91125
InitMesh: Mesh cutoff (required, used) =   200.000   223.865 Ry
ExtMesh (bp) on 0 =   117 x   117 x   117 =     1601613
PhiOnMesh: Number of (b)points on node 0 =                91125
PhiOnMesh: nlist on node 0 =               451261

        iscf     Eharris(eV)        E_KS(eV)     FreeEng(eV)     dDmax    Ef(eV) dHmax(eV)
   scf:    1     -900.397298     -900.575367     -900.644679  0.444865 -6.520093  0.282778
   scf:    2     -900.557469     -900.570484     -900.639407  0.134145 -6.744612  0.334725
   scf:    3     -900.578858     -900.575779     -900.645033  0.058382 -6.647067  0.070057
   scf:    4     -900.575041     -900.576362     -900.645653  0.030387 -6.653827  0.034382
   scf:    5     -900.576550     -900.576630     -900.645945  0.012891 -6.658599  0.025183
   scf:    6     -900.576609     -900.576621     -900.645935  0.002310 -6.662743  0.028834
   scf:    7     -900.576663     -900.576650     -900.645965  0.013955 -6.657508  0.001526
   scf:    8     -900.576649     -900.576650     -900.645964  0.000616 -6.657774  0.002051
   scf:    9     -900.576649     -900.576650     -900.645964  0.000732 -6.658282  0.000565
   scf:   10     -900.576650     -900.576650     -900.645964  0.000195 -6.658358  0.000508

SCF Convergence by DM+H criterion
max |DM_out - DM_in|         :     0.0001951513
max |H_out - H_in|      (eV) :     0.0005080897
SCF cycle converged after 10 iterations

Using DM_out to compute the final energy and forces
No. of atoms with KB's overlaping orbs in proc 0. Max # of overlaps:       4      30

siesta: E_KS(eV) =             -900.5766

siesta: Atomic forces (eV/Ang):
----------------------------------------
   Tot    0.000507   -0.000021    0.000513
----------------------------------------
   Max    1.850396
   Res    0.803080    sqrt( Sum f_i^2 / 3N )
----------------------------------------
   Max    1.850396    constrained

Stress tensor Voigt[x,y,z,yz,xz,xy] (kbar):      -19.09       -0.41       -0.19       -0.06        0.24        0.11
(Free)E + p*V (eV/cell)     -896.5490
Target enthalpy (eV/cell)     -900.6460

siesta: Stress tensor (static) (eV/Ang**3):
        -0.001767   -0.000020    0.000168
        -0.000020    0.000017    0.000031
         0.000168    0.000031    0.000052

siesta: Pressure (static):          0.90716952  kBar

siesta: Stress tensor (total) (eV/Ang**3):
        -0.011914    0.000068    0.000149
         0.000068   -0.000256   -0.000037
         0.000149   -0.000037   -0.000121

siesta: Pressure (total):          6.56415510  kBar

siesta: Temp_ion =   13731.955 K

                     ====================================
                        Begin MD step =      6
                     ====================================

outcell: Unit cell vectors (Ang):
       10.000000    0.000000    0.000000
        0.000000   10.000000    0.000000
        0.000000    0.000000   10.000000

outcell: Cell vector modules (Ang)   :   10.000000   10.000000   10.000000
outcell: Cell angles (23,13,12) (deg):     90.0000     90.0000     90.0000
outcell: Cell volume (Ang**3)        :   1000.0000
Gamma-point calculation with multiply-connected orbital pairs
Gamma-point calculation with multiply-connected orbital pairs
Folding of H and S implicitly performed
Folding of H and S implicitly performed
<dSpData1D:S at geom step 6
  <sparsity:sparsity for geom step 6
    nrows_g=36 nrows=36 sparsity=.9552 nnzs=1238, refcount: 7>
  <dData1D:(new from dSpData1D) n=1238, refcount: 1>
refcount: 1>
new_DM -- step:     6
Re-using DM from previous geometries...
Number of DMs in history: 1
 DM extrapolation coefficients: 
1   1.00000
New DM after history re-use:
<dSpData2D:SpM extrapolated using coords
  <sparsity:sparsity for geom step 6
    nrows_g=36 nrows=36 sparsity=.9552 nnzs=1238, refcount: 9>
  <dData2D:(temp array for extrapolation) n=1238 m=1, refcount: 1>
refcount: 1>
No. of atoms with KB's overlaping orbs in proc 0. Max # of overlaps:       4      30
New grid distribution:   1
           1       1:   45    1:   45    1:   45

InitMesh: MESH =    90 x    90 x    90 =      729000
InitMesh: (bp) =    45 x    45 x    45 =       91125
InitMesh: Mesh cutoff (required, used) =   200.000   223.865 Ry
ExtMesh (bp) on 0 =   117 x   117 x   117 =     1601613
PhiOnMesh: Number of (b)points on node 0 =                91125
PhiOnMesh: nlist on node 0 =               451217

        iscf     Eharris(eV)        E_KS(eV)     FreeEng(eV)     dDmax    Ef(eV) dHmax(eV)
   scf:    1     -900.472588     -900.566522     -900.635831  0.488737 -6.568795  0.157217
   scf:    2     -900.539408     -900.558251     -900.626859  0.077806 -6.690306  0.243122
   scf:    3     -900.569907     -900.565845     -900.635066  0.044950 -6.632523  0.066190
   scf:    4     -900.566063     -900.566855     -900.636162  0.031313 -6.640591  0.022677
   scf:    5     -900.566879     -900.566956     -900.636270  0.009709 -6.639609  0.016432
   scf:    6     -900.566903     -900.566951     -900.636265  0.004991 -6.644582  0.013046
   scf:    7     -900.566970     -900.566968     -900.636282  0.006671 -6.643031  0.000744
   scf:    8     -900.566968     -900.566968     -900.636282  0.000280 -6.642915  0.000907

SCF Convergence by DM+H criterion
max |DM_out - DM_in|         :     0.0002795159
max |H_out - H_in|      (eV) :     0.0009067980
SCF cycle converged after 8 iterations

Using DM_out to compute the final energy and forces
No. of atoms with KB's overlaping orbs in proc 0. Max # of overlaps:       4      30

siesta: E_KS(eV) =             -900.5670

siesta: Atomic forces (eV/Ang):
----------------------------------------
   Tot   -0.000297   -0.000149    0.000590
----------------------------------------
   Max    1.987832
   Res    0.915698    sqrt( Sum f_i^2 / 3N )
----------------------------------------
   Max    1.987832    constrained

Stress tensor Voigt[x,y,z,yz,xz,xy] (kbar):      -19.04       -0.37       -0.08        0.02        0.48        0.15
(Free)E + p*V (eV/cell)     -896.5811
Target enthalpy (eV/cell)     -900.6363

siesta: Stress tensor (static) (eV/Ang**3):
        -0.001738    0.000017    0.000292
         0.000017    0.000036    0.000070
         0.000292    0.000070    0.000109

siesta: Pressure (static):          0.85073142  kBar

siesta: Stress tensor (total) (eV/Ang**3):
        -0.011881    0.000091    0.000297
         0.000091   -0.000233    0.000010
         0.000297    0.000010   -0.000051

siesta: Pressure (total):          6.49725979  kBar

siesta: Temp_ion =   13709.867 K

                     ====================================
                        Begin MD step =      7
                     ====================================

outcell: Unit cell vectors (Ang):
       10.000000    0.000000    0.000000
        0.000000   10.000000    0.000000
        0.000000    0.000000   10.000000

outcell: Cell vector modules (Ang)   :   10.000000   10.000000   10.000000
outcell: Cell angles (23,13,12) (deg):     90.0000     90.0000     90.0000
outcell: Cell volume (Ang**3)        :   1000.0000
Gamma-point calculation with multiply-connected orbital pairs
Gamma-point calculation with multiply-connected orbital pairs
Folding of H and S implicitly performed
Folding of H and S implicitly performed
<dSpData1D:S at geom step 7
  <sparsity:sparsity for geom step 7
    nrows_g=36 nrows=36 sparsity=.9784 nnzs=1268, refcount: 7>
  <dData1D:(new from dSpData1D) n=1268, refcount: 1>
refcount: 1>
new_DM -- step:     7
Re-using DM from previous geometries...
Number of DMs in history: 1
 DM extrapolation coefficients: 
1   1.00000
New DM after history re-use:
<dSpData2D:SpM extrapolated using coords
  <sparsity:sparsity for geom step 7
    nrows_g=36 nrows=36 sparsity=.9784 nnzs=1268, refcount: 9>
  <dData2D:(temp array for extrapolation) n=1268 m=1, refcount: 1>
refcount: 1>
No. of atoms with KB's overlaping orbs in proc 0. Max # of overlaps:       4      34
New grid distribution:   1
           1       1:   45    1:   45    1:   45

InitMesh: MESH =    90 x    90 x    90 =      729000
InitMesh: (bp) =    45 x    45 x    45 =       91125
InitMesh: Mesh cutoff (required, used) =   200.000   223.865 Ry
ExtMesh (bp) on 0 =   117 x   117 x   117 =     1601613
PhiOnMesh: Number of (b)points on node 0 =                91125
PhiOnMesh: nlist on node 0 =               451256

        iscf     Eharris(eV)        E_KS(eV)     FreeEng(eV)     dDmax    Ef(eV) dHmax(eV)
   scf:    1     -900.594669     -900.575342     -900.644654  0.468317 -6.680646  0.073545
   scf:    2     -900.564485     -900.572006     -900.641025  0.055225 -6.622165  0.119580
   scf:    3     -900.576644     -900.575037     -900.644313  0.032070 -6.650059  0.032445
   scf:    4     -900.575379     -900.575476     -900.644790  0.019095 -6.646347  0.011421
   scf:    5     -900.575459     -900.575478     -900.644792  0.003653 -6.644320  0.007343
   scf:    6     -900.575474     -900.575476     -900.644790  0.000358 -6.644051  0.007339
   scf:    7     -900.575483     -900.575484     -900.644799  0.002847 -6.645398  0.000799
   scf:    8     -900.575484     -900.575484     -900.644799  0.000105 -6.645502  0.000975

SCF Convergence by DM+H criterion
max |DM_out - DM_in|         :     0.0001049004
max |H_out - H_in|      (eV) :     0.0009751760
SCF cycle converged after 8 iterations

Using DM_out to compute the final energy and forces
No. of atoms with KB's overlaping orbs in proc 0. Max # of overlaps:       4      34

siesta: E_KS(eV) =             -900.5755

siesta: Atomic forces (eV/Ang):
----------------------------------------
   Tot   -0.007765   -0.000018    0.000195
----------------------------------------
   Max    1.945734
   Res    0.888082    sqrt( Sum f_i^2 / 3N )
----------------------------------------
   Max    1.945734    constrained

Stress tensor Voigt[x,y,z,yz,xz,xy] (kbar):      -19.15       -0.35        0.01        0.08        0.57        0.10
(Free)E + p*V (eV/cell)     -896.5918
Target enthalpy (eV/cell)     -900.6448

siesta: Stress tensor (static) (eV/Ang**3):
        -0.001785   -0.000005    0.000308
        -0.000005    0.000044    0.000090
         0.000308    0.000090    0.000138

siesta: Pressure (static):          0.85627787  kBar

siesta: Stress tensor (total) (eV/Ang**3):
        -0.011950    0.000064    0.000357
         0.000064   -0.000216    0.000050
         0.000357    0.000050    0.000007

siesta: Pressure (total):          6.49372388  kBar

siesta: Temp_ion =   13733.181 K

                     ====================================
                        Begin MD step =      8
                     ====================================

outcell: Unit cell vectors (Ang):
       10.000000    0.000000    0.000000
        0.000000   10.000000    0.000000
        0.000000    0.000000   10.000000

outcell: Cell vector modules (Ang)   :   10.000000   10.000000   10.000000
outcell: Cell angles (23,13,12) (deg):     90.0000     90.0000     90.0000
outcell: Cell volume (Ang**3)        :   1000.0000
Gamma-point calculation with multiply-connected orbital pairs
Gamma-point calculation with multiply-connected orbital pairs
Folding of H and S implicitly performed
Folding of H and S implicitly performed
<dSpData1D:S at geom step 8
  <sparsity:sparsity for geom step 8
    nrows_g=36 nrows=36 sparsity=.9784 nnzs=1268, refcount: 7>
  <dData1D:(new from dSpData1D) n=1268, refcount: 1>
refcount: 1>
new_DM -- step:     8
Re-using DM from previous geometries...
Number of DMs in history: 1
 DM extrapolation coefficients: 
1   1.00000
New DM after history re-use:
<dSpData2D:SpM extrapolated using coords
  <sparsity:sparsity for geom step 8
    nrows_g=36 nrows=36 sparsity=.9784 nnzs=1268, refcount: 9>
  <dData2D:(temp array for extrapolation) n=1268 m=1, refcount: 1>
refcount: 1>
No. of atoms with KB's overlaping orbs in proc 0. Max # of overlaps:       4      34
New grid distribution:   1
           1       1:   45    1:   45    1:   45

InitMesh: MESH =    90 x    90 x    90 =      729000
InitMesh: (bp) =    45 x    45 x    45 =       91125
InitMesh: Mesh cutoff (required, used) =   200.000   223.865 Ry
ExtMesh (bp) on 0 =   117 x   117 x   117 =     1601613
PhiOnMesh: Number of (b)points on node 0 =                91125
PhiOnMesh: nlist on node 0 =               451232

        iscf     Eharris(eV)        E_KS(eV)     FreeEng(eV)     dDmax    Ef(eV) dHmax(eV)
   scf:    1     -900.711830     -900.595761     -900.665073  0.402764 -6.795352  0.283327
   scf:    2     -900.580513     -900.591709     -900.660772  0.167295 -6.576701  0.373521
   scf:    3     -900.599026     -900.596388     -900.665669  0.078874 -6.678599  0.091075
   scf:    4     -900.595233     -900.596658     -900.665940  0.026123 -6.665639  0.031429
   scf:    5     -900.596912     -900.597027     -900.666341  0.014541 -6.667943  0.030427
   scf:    6     -900.596488     -900.596871     -900.666174  0.009772 -6.653655  0.047519
   scf:    7     -900.597048     -900.597044     -900.666358  0.013855 -6.663932  0.001581
   scf:    8     -900.597042     -900.597043     -900.666357  0.000559 -6.663696  0.002621
   scf:    9     -900.597044     -900.597044     -900.666358  0.000915 -6.663063  0.000447
   scf:   10     -900.597044     -900.597044     -900.666358  0.000112 -6.663002  0.000360

SCF Convergence by DM+H criterion
max |DM_out - DM_in|         :     0.0001123368
max |H_out - H_in|      (eV) :     0.0003599437
SCF cycle converged after 10 iterations

Using DM_out to compute the final energy and forces
No. of atoms with KB's overlaping orbs in proc 0. Max # of overlaps:       4      34

siesta: E_KS(eV) =             -900.5970

siesta: Atomic forces (eV/Ang):
----------------------------------------
   Tot    0.009381   -0.000137    0.000374
----------------------------------------
   Max    1.722899
   Res    0.735319    sqrt( Sum f_i^2 / 3N )
----------------------------------------
   Max    1.722899    constrained

Stress tensor Voigt[x,y,z,yz,xz,xy] (kbar):      -19.46       -0.36       -0.00        0.08        0.44       -0.05
(Free)E + p*V (eV/cell)     -896.5424
Target enthalpy (eV/cell)     -900.6664

siesta: Stress tensor (static) (eV/Ang**3):
        -0.001917   -0.000088    0.000190
        -0.000088    0.000023    0.000063
         0.000190    0.000063    0.000096

siesta: Pressure (static):          0.96040528  kBar

siesta: Stress tensor (total) (eV/Ang**3):
        -0.012146   -0.000030    0.000274
        -0.000030   -0.000226    0.000047
         0.000274    0.000047   -0.000000

siesta: Pressure (total):          6.60743777  kBar

siesta: Temp_ion =   13783.867 K

                     ====================================
                        Begin MD step =      9
                     ====================================

outcell: Unit cell vectors (Ang):
       10.000000    0.000000    0.000000
        0.000000   10.000000    0.000000
        0.000000    0.000000   10.000000

outcell: Cell vector modules (Ang)   :   10.000000   10.000000   10.000000
outcell: Cell angles (23,13,12) (deg):     90.0000     90.0000     90.0000
outcell: Cell volume (Ang**3)        :   1000.0000
Gamma-point calculation with multiply-connected orbital pairs
Gamma-point calculation with multiply-connected orbital pairs
Folding of H and S implicitly performed
Folding of H and S implicitly performed
<dSpData1D:S at geom step 9
  <sparsity:sparsity for geom step 9
    nrows_g=36 nrows=36 sparsity=.9830 nnzs=1274, refcount: 7>
  <dData1D:(new from dSpData1D) n=1274, refcount: 1>
refcount: 1>
new_DM -- step:     9
Re-using DM from previous geometries...
Number of DMs in history: 1
 DM extrapolation coefficients: 
1   1.00000
New DM after history re-use:
<dSpData2D:SpM extrapolated using coords
  <sparsity:sparsity for geom step 9
    nrows_g=36 nrows=36 sparsity=.9830 nnzs=1274, refcount: 9>
  <dData2D:(temp array for extrapolation) n=1274 m=1, refcount: 1>
refcount: 1>
Note: For starting DM, Qtot, Tr[D*S] =         14.00000000         14.01485884
No. of atoms with KB's overlaping orbs in proc 0. Max # of overlaps:       4      34
New grid distribution:   1
           1       1:   45    1:   45    1:   45

InitMesh: MESH =    90 x    90 x    90 =      729000
InitMesh: (bp) =    45 x    45 x    45 =       91125
InitMesh: Mesh cutoff (required, used) =   200.000   223.865 Ry
ExtMesh (bp) on 0 =   117 x   117 x   117 =     1601613
PhiOnMesh: Number of (b)points on node 0 =                91125
PhiOnMesh: nlist on node 0 =               451252

        iscf     Eharris(eV)        E_KS(eV)     FreeEng(eV)     dDmax    Ef(eV) dHmax(eV)
   scf:    1     -900.761519     -900.603176     -900.672489  0.124902 -6.858220  0.360974
   scf:    2     -900.580456     -900.597243     -900.666286  0.202281 -6.586609  0.516818
   scf:    3     -900.608308     -900.604373     -900.673653  0.099816 -6.718956  0.135043
   scf:    4     -900.603005     -900.604752     -900.674024  0.038814 -6.697437  0.033667
   scf:    5     -900.605195     -900.605253     -900.674567  0.021645 -6.702004  0.034075
   scf:    6     -900.604775     -900.605104     -900.674410  0.010961 -6.684490  0.059332
   scf:    7     -900.605279     -900.605270     -900.674584  0.017930 -6.697142  0.003519
   scf:    8     -900.605267     -900.605269     -900.674583  0.000537 -6.696536  0.004042
   scf:    9     -900.605270     -900.605270     -900.674585  0.001914 -6.695444  0.000316
   scf:   10     -900.605271     -900.605271     -900.674585  0.000068 -6.695426  0.000314

SCF Convergence by DM+H criterion
max |DM_out - DM_in|         :     0.0000675698
max |H_out - H_in|      (eV) :     0.0003142165
SCF cycle converged after 10 iterations

Using DM_out to compute the final energy and forces
No. of atoms with KB's overlaping orbs in proc 0. Max # of overlaps:       4      34

siesta: E_KS(eV) =             -900.6053

siesta: Atomic forces (eV/Ang):
----------------------------------------
   Tot   -0.038893   -0.000271   -0.000029
----------------------------------------
   Max    1.367476
   Res    0.554509    sqrt( Sum f_i^2 / 3N )
----------------------------------------
   Max    1.367476    constrained

Stress tensor Voigt[x,y,z,yz,xz,xy] (kbar):      -19.50       -0.43       -0.15       -0.02        0.14       -0.27
(Free)E + p*V (eV/cell)     -896.4971
Target enthalpy (eV/cell)     -900.6746

siesta: Stress tensor (static) (eV/Ang**3):
        -0.001869   -0.000202   -0.000012
        -0.000202   -0.000029   -0.000015
        -0.000012   -0.000015   -0.000022

siesta: Pressure (static):          1.02531952  kBar

siesta: Stress tensor (total) (eV/Ang**3):
        -0.012168   -0.000167    0.000087
        -0.000167   -0.000271   -0.000012
         0.000087   -0.000012   -0.000094

siesta: Pressure (total):          6.69319399  kBar

siesta: Temp_ion =   13810.980 K

                     ====================================
                        Begin MD step =     10
                     ====================================

outcell: Unit cell vectors (Ang):
       10.000000    0.000000    0.000000
        0.000000   10.000000    0.000000
        0.000000    0.000000   10.000000

outcell: Cell vector modules (Ang)   :   10.000000   10.000000   10.000000
outcell: Cell angles (23,13,12) (deg):     90.0000     90.0000     90.0000
outcell: Cell volume (Ang**3)        :   1000.0000
Gamma-point calculation with multiply-connected orbital pairs
Gamma-point calculation with multiply-connected orbital pairs
Folding of H and S implicitly performed
Folding of H and S implicitly performed
<dSpData1D:S at geom step 10
  <sparsity:sparsity for geom step 10
    nrows_g=36 nrows=36 sparsity=.9877 nnzs=1280, refcount: 7>
  <dData1D:(new from dSpData1D) n=1280, refcount: 1>
refcount: 1>
new_DM -- step:    10
Re-using DM from previous geometries...
Number of DMs in history: 1
 DM extrapolation coefficients: 
1   1.00000
New DM after history re-use:
<dSpData2D:SpM extrapolated using coords
  <sparsity:sparsity for geom step 10
    nrows_g=36 nrows=36 sparsity=.9877 nnzs=1280, refcount: 9>
  <dData2D:(temp array for extrapolation) n=1280 m=1, refcount: 1>
refcount: 1>
No. of atoms with KB's overlaping orbs in proc 0. Max # of overlaps:       4      34
New grid distribution:   1
           1       1:   45    1:   45    1:   45

InitMesh: MESH =    90 x    90 x    90 =      729000
InitMesh: (bp) =    45 x    45 x    45 =       91125
InitMesh: Mesh cutoff (required, used) =   200.000   223.865 Ry
ExtMesh (bp) on 0 =   117 x   117 x   117 =     1601613
PhiOnMesh: Number of (b)points on node 0 =                91125
PhiOnMesh: nlist on node 0 =               451327

        iscf     Eharris(eV)        E_KS(eV)     FreeEng(eV)     dDmax    Ef(eV) dHmax(eV)
   scf:    1     -900.721055     -900.588518     -900.657819  0.737518 -6.833540  0.218309
   scf:    2     -900.541322     -900.574248     -900.642404  0.104123 -6.671877  0.322035
   scf:    3     -900.594763     -900.587710     -900.656891  0.062199 -6.751607  0.082852
   scf:    4     -900.587143     -900.589212     -900.658490  0.048454 -6.741630  0.025462
   scf:    5     -900.587868     -900.589217     -900.658508  0.029929 -6.734418  0.026359
   scf:    6     -900.589650     -900.589475     -900.658785  0.007449 -6.736860  0.014638
   scf:    7     -900.589579     -900.589572     -900.658886  0.009881 -6.739431  0.001228
   scf:    8     -900.589571     -900.589572     -900.658886  0.000499 -6.739458  0.001215
   scf:    9     -900.589571     -900.589572     -900.658886  0.000888 -6.739075  0.000785
   scf:   10     -900.589572     -900.589572     -900.658886  0.000126 -6.739013  0.000687

SCF Convergence by DM+H criterion
max |DM_out - DM_in|         :     0.0001264362
max |H_out - H_in|      (eV) :     0.0006872901
SCF cycle converged after 10 iterations

Using DM_out to compute the final energy and forces
No. of atoms with KB's overlaping orbs in proc 0. Max # of overlaps:       4      34

siesta: E_KS(eV) =             -900.5896

siesta: Atomic forces (eV/Ang):
----------------------------------------
   Tot   -0.000361   -0.000323   -0.000181
----------------------------------------
   Max    0.945313
   Res    0.432408    sqrt( Sum f_i^2 / 3N )
----------------------------------------
   Max    0.945313    constrained

Stress tensor Voigt[x,y,z,yz,xz,xy] (kbar):      -19.40       -0.51       -0.33       -0.14       -0.06       -0.36
(Free)E + p*V (eV/cell)     -896.4486
Target enthalpy (eV/cell)     -900.6589

siesta: Stress tensor (static) (eV/Ang**3):
        -0.001782   -0.000238   -0.000143
        -0.000238   -0.000077   -0.000092
        -0.000143   -0.000092   -0.000139

siesta: Pressure (static):          1.06670001  kBar

siesta: Stress tensor (total) (eV/Ang**3):
        -0.012106   -0.000227   -0.000038
        -0.000227   -0.000321   -0.000084
        -0.000037   -0.000084   -0.000204

siesta: Pressure (total):          6.74572315  kBar

siesta: Temp_ion =   13783.299 K

                     ====================================
                        Begin MD step =     11
                     ====================================

outcell: Unit cell vectors (Ang):
       10.000000    0.000000    0.000000
        0.000000   10.000000    0.000000
        0.000000    0.000000   10.000000

outcell: Cell vector modules (Ang)   :   10.000000   10.000000   10.000000
outcell: Cell angles (23,13,12) (deg):     90.0000     90.0000     90.0000
outcell: Cell volume (Ang**3)        :   1000.0000
Gamma-point calculation with multiply-connected orbital pairs
Gamma-point calculation with multiply-connected orbital pairs
Folding of H and S implicitly performed
Folding of H and S implicitly performed
<dSpData1D:S at geom step 11
  <sparsity:sparsity for geom step 11
    nrows_g=36 nrows=36 sparsity=.9877 nnzs=1280, refcount: 7>
  <dData1D:(new from dSpData1D) n=1280, refcount: 1>
refcount: 1>
new_DM -- step:    11
Re-using DM from previous geometries...
Number of DMs in history: 1
 DM extrapolation coefficients: 
1   1.00000
New DM after history re-use:
<dSpData2D:SpM extrapolated using coords
  <sparsity:sparsity for geom step 11
    nrows_g=36 nrows=36 sparsity=.9877 nnzs=1280, refcount: 9>
  <dData2D:(temp array for extrapolation) n=1280 m=1, refcount: 1>
refcount: 1>
No. of atoms with KB's overlaping orbs in proc 0. Max # of overlaps:       4      34
New grid distribution:   1
           1       1:   45    1:   45    1:   45

InitMesh: MESH =    90 x    90 x    90 =      729000
InitMesh: (bp) =    45 x    45 x    45 =       91125
InitMesh: Mesh cutoff (required, used) =   200.000   223.865 Ry
ExtMesh (bp) on 0 =   117 x   117 x   117 =     1601613
PhiOnMesh: Number of (b)points on node 0 =                91125
PhiOnMesh: nlist on node 0 =               451257

        iscf     Eharris(eV)        E_KS(eV)     FreeEng(eV)     dDmax    Ef(eV) dHmax(eV)
   scf:    1     -900.605904     -900.553863     -900.623118  1.001301 -6.755532  0.101406
   scf:    2     -900.363245     -900.494406     -900.558658  0.185671 -6.807304  0.360891
   scf:    3     -900.566539     -900.553750     -900.623008  0.149321 -6.767654  0.066046
   scf:    4     -900.550403     -900.553872     -900.623084  0.041267 -6.784117  0.045767
   scf:    5     -900.555062     -900.554670     -900.623967  0.013490 -6.781989  0.033970
   scf:    6     -900.554738     -900.554719     -900.624016  0.020158 -6.791273  0.014982
   scf:    7     -900.554515     -900.554625     -900.623911  0.002920 -6.790215  0.015605
   scf:    8     -900.554764     -900.554818     -900.624132  0.010424 -6.787147  0.002250
   scf:    9     -900.554822     -900.554822     -900.624135  0.001544 -6.787456  0.001170
   scf:   10     -900.554822     -900.554822     -900.624135  0.000435 -6.787786  0.001502
   scf:   11     -900.554822     -900.554822     -900.624135  0.000087 -6.787867  0.001031
   scf:   12     -900.554822     -900.554822     -900.624135  0.000162 -6.787886  0.000841

SCF Convergence by DM+H criterion
max |DM_out - DM_in|         :     0.0001616899
max |H_out - H_in|      (eV) :     0.0008411737
SCF cycle converged after 12 iterations

Using DM_out to compute the final energy and forces
No. of atoms with KB's overlaping orbs in proc 0. Max # of overlaps:       4      34

siesta: E_KS(eV) =             -900.5548

siesta: Atomic forces (eV/Ang):
----------------------------------------
   Tot   -0.004690   -0.000553    0.000031
----------------------------------------
   Max    0.497158
   Res    0.231675    sqrt( Sum f_i^2 / 3N )
----------------------------------------
   Max    0.497158    constrained

Stress tensor Voigt[x,y,z,yz,xz,xy] (kbar):      -18.80       -0.51       -0.31       -0.13        0.03       -0.22
(Free)E + p*V (eV/cell)     -896.5422
Target enthalpy (eV/cell)     -900.6241

siesta: Stress tensor (static) (eV/Ang**3):
        -0.001457   -0.000128   -0.000095
        -0.000128   -0.000063   -0.000078
        -0.000095   -0.000078   -0.000113

siesta: Pressure (static):          0.87240010  kBar

siesta: Stress tensor (total) (eV/Ang**3):
        -0.011736   -0.000135    0.000016
        -0.000135   -0.000317   -0.000080
         0.000016   -0.000080   -0.000193

siesta: Pressure (total):          6.54004091  kBar

siesta: Temp_ion =   13686.010 K

                     ====================================
                        Begin MD step =     12
                     ====================================

outcell: Unit cell vectors (Ang):
       10.000000    0.000000    0.000000
        0.000000   10.000000    0.000000
        0.000000    0.000000   10.000000

outcell: Cell vector modules (Ang)   :   10.000000   10.000000   10.000000
outcell: Cell angles (23,13,12) (deg):     90.0000     90.0000     90.0000
outcell: Cell volume (Ang**3)        :   1000.0000
Gamma-point calculation with multiply-connected orbital pairs
Gamma-point calculation with multiply-connected orbital pairs
Folding of H and S implicitly performed
Folding of H and S implicitly performed
<dSpData1D:S at geom step 12
  <sparsity:sparsity for geom step 12
    nrows_g=36 nrows=36 sparsity=.9954 nnzs=1290, refcount: 7>
  <dData1D:(new from dSpData1D) n=1290, refcount: 1>
refcount: 1>
new_DM -- step:    12
Re-using DM from previous geometries...
Number of DMs in history: 1
 DM extrapolation coefficients: 
1   1.00000
New DM after history re-use:
<dSpData2D:SpM extrapolated using coords
  <sparsity:sparsity for geom step 12
    nrows_g=36 nrows=36 sparsity=.9954 nnzs=1290, refcount: 9>
  <dData2D:(temp array for extrapolation) n=1290 m=1, refcount: 1>
refcount: 1>
Note: For starting DM, Qtot, Tr[D*S] =         14.00000000         13.97301407
No. of atoms with KB's overlaping orbs in proc 0. Max # of overlaps:       4      35
New grid distribution:   1
           1       1:   45    1:   45    1:   45

InitMesh: MESH =    90 x    90 x    90 =      729000
InitMesh: (bp) =    45 x    45 x    45 =       91125
InitMesh: Mesh cutoff (required, used) =   200.000   223.865 Ry
ExtMesh (bp) on 0 =   117 x   117 x   117 =     1601613
PhiOnMesh: Number of (b)points on node 0 =                91125
PhiOnMesh: nlist on node 0 =               451160

        iscf     Eharris(eV)        E_KS(eV)     FreeEng(eV)     dDmax    Ef(eV) dHmax(eV)
   scf:    1     -900.379861     -900.450675     -900.519681  1.203732 -6.700571  0.458344
   scf:    2     -899.553475     -900.172930     -900.221736  0.381562 -6.937337  1.425931
   scf:    3     -900.521097     -900.451409     -900.520430  0.298684 -6.756589  0.243793
   scf:    4     -900.239290     -900.395540     -900.458822  0.225263 -6.851785  0.190282
   scf:    5     -900.390441     -900.393006     -900.456050  0.012798 -6.863038  0.215207
   scf:    6     -900.478058     -900.451840     -900.520544  0.128175 -6.844345  0.062880
   scf:    7     -900.434912     -900.452824     -900.521878  0.097876 -6.852360  0.066978
   scf:    8     -900.458168     -900.456979     -900.526293  0.037624 -6.835553  0.011090
   scf:    9     -900.457121     -900.457098     -900.526405  0.007281 -6.838433  0.002674
   scf:   10     -900.457086     -900.457097     -900.526397  0.002646 -6.837807  0.003296
   scf:   11     -900.457095     -900.457100     -900.526406  0.001953 -6.838480  0.002179
   scf:   12     -900.457101     -900.457101     -900.526406  0.000304 -6.838783  0.001073
   scf:   13     -900.457100     -900.457101     -900.526406  0.000197 -6.838721  0.000841

SCF Convergence by DM+H criterion
max |DM_out - DM_in|         :     0.0001965243
max |H_out - H_in|      (eV) :     0.0008408430
SCF cycle converged after 13 iterations

Using DM_out to compute the final energy and forces
No. of atoms with KB's overlaping orbs in proc 0. Max # of overlaps:       4      35

siesta: E_KS(eV) =             -900.4571

siesta: Atomic forces (eV/Ang):
----------------------------------------
   Tot    0.000971   -0.000662   -0.000550
----------------------------------------
   Max    0.577676
   Res    0.249153    sqrt( Sum f_i^2 / 3N )
----------------------------------------
   Max    0.577676    constrained

Stress tensor Voigt[x,y,z,yz,xz,xy] (kbar):      -18.87       -0.39       -0.03        0.05        0.32        0.12
(Free)E + p*V (eV/cell)     -896.5135
Target enthalpy (eV/cell)     -900.5264

siesta: Stress tensor (static) (eV/Ang**3):
        -0.001611    0.000094    0.000086
         0.000094    0.000023    0.000048
         0.000086    0.000048    0.000086

siesta: Pressure (static):          0.80187025  kBar

siesta: Stress tensor (total) (eV/Ang**3):
        -0.011778    0.000075    0.000198
         0.000075   -0.000244    0.000031
         0.000198    0.000031   -0.000017

siesta: Pressure (total):          6.42950639  kBar

siesta: Temp_ion =   13418.372 K

                     ====================================
                        Begin MD step =     13
                     ====================================

outcell: Unit cell vectors (Ang):
       10.000000    0.000000    0.000000
        0.000000   10.000000    0.000000
        0.000000    0.000000   10.000000

outcell: Cell vector modules (Ang)   :   10.000000   10.000000   10.000000
outcell: Cell angles (23,13,12) (deg):     90.0000     90.0000     90.0000
outcell: Cell volume (Ang**3)        :   1000.0000
Gamma-point calculation with multiply-connected orbital pairs
Gamma-point calculation with multiply-connected orbital pairs
Folding of H and S implicitly performed
Folding of H and S implicitly performed
<dSpData1D:S at geom step 13
  <sparsity:sparsity for geom step 13
    nrows_g=36 nrows=36 sparsity=.9954 nnzs=1290, refcount: 7>
  <dData1D:(new from dSpData1D) n=1290, refcount: 1>
refcount: 1>
new_DM -- step:    13
Re-using DM from previous geometries...
Number of DMs in history: 1
 DM extrapolation coefficients: 
1   1.00000
New DM after history re-use:
<dSpData2D:SpM extrapolated using coords
  <sparsity:sparsity for geom step 13
    nrows_g=36 nrows=36 sparsity=.9954 nnzs=1290, refcount: 9>
  <dData2D:(temp array for extrapolation) n=1290 m=1, refcount: 1>
refcount: 1>
Note: For starting DM, Qtot, Tr[D*S] =         14.00000000         13.95961340
No. of atoms with KB's overlaping orbs in proc 0. Max # of overlaps:       4      35
New grid distribution:   1
           1       1:   45    1:   45    1:   45

InitMesh: MESH =    90 x    90 x    90 =      729000
InitMesh: (bp) =    45 x    45 x    45 =       91125
InitMesh: Mesh cutoff (required, used) =   200.000   223.865 Ry
ExtMesh (bp) on 0 =   117 x   117 x   117 =     1601613
PhiOnMesh: Number of (b)points on node 0 =                91125
PhiOnMesh: nlist on node 0 =               451139

        iscf     Eharris(eV)        E_KS(eV)     FreeEng(eV)     dDmax    Ef(eV) dHmax(eV)
   scf:    1     -899.942026     -900.198055     -900.265562  1.376404 -6.705101  0.740733
   scf:    2     -897.852883     -899.492341     -899.506575  0.593852 -7.016862  2.549154
   scf:    3     -900.411905     -900.198916     -900.266905  0.417646 -6.772486  0.348791
   scf:    4     -900.192486     -900.195753     -900.263510  0.006928 -6.771456  0.358280
   scf:    5     -899.347597     -899.980846     -900.023818  0.438451 -6.905072  0.416241
   scf:    6     -900.157379     -900.074797     -900.128228  0.072086 -6.882628  0.289130
   scf:    7     -899.244569     -900.012719     -900.064321  0.567008 -6.890244  0.337602
   scf:    8     -899.763543     -899.894554     -899.934055  0.077558 -6.886128  0.420613
   scf:    9     -900.327704     -900.169174     -900.234708  0.230380 -6.892432  0.181747
   scf:   10     -899.467538     -899.879904     -899.917766  0.239899 -6.874954  0.401132
   scf:   11     -900.308254     -900.213225     -900.282095  0.329101 -6.878857  0.065511
   scf:   12     -900.162592     -900.209864     -900.277452  0.141083 -6.880621  0.080459
   scf:   13     -900.222871     -900.222593     -900.291841  0.074980 -6.879793  0.003721
   scf:   14     -900.221482     -900.222240     -900.291550  0.013064 -6.879835  0.011932
   scf:   15     -900.222585     -900.222595     -900.291848  0.012990 -6.879843  0.002553
   scf:   16     -900.222594     -900.222595     -900.291845  0.000314 -6.879973  0.002521
   scf:   17     -900.222588     -900.222594     -900.291854  0.001417 -6.879889  0.002215
   scf:   18     -900.222590     -900.222592     -900.291854  0.000378 -6.880206  0.002264
   scf:   19     -900.222590     -900.222591     -900.291854  0.000120 -6.880368  0.001819
   scf:   20     -900.222591     -900.222591     -900.291855  0.000176 -6.880393  0.001393
   scf:   21     -900.222591     -900.222591     -900.291855  0.000205 -6.880456  0.001014
   scf:   22     -900.222591     -900.222591     -900.291855  0.000134 -6.880593  0.000886

SCF Convergence by DM+H criterion
max |DM_out - DM_in|         :     0.0001335273
max |H_out - H_in|      (eV) :     0.0008861128
SCF cycle converged after 22 iterations

Using DM_out to compute the final energy and forces
No. of atoms with KB's overlaping orbs in proc 0. Max # of overlaps:       4      35

siesta: E_KS(eV) =             -900.2226

siesta: Atomic forces (eV/Ang):
----------------------------------------
   Tot    0.037776    0.000574    0.000730
----------------------------------------
   Max    1.544145
   Res    0.643746    sqrt( Sum f_i^2 / 3N )
----------------------------------------
   Max    1.544145    constrained

Stress tensor Voigt[x,y,z,yz,xz,xy] (kbar):      -20.33       -0.26        0.34        0.28        0.54        0.46
(Free)E + p*V (eV/cell)     -896.0778
Target enthalpy (eV/cell)     -900.2919

siesta: Stress tensor (static) (eV/Ang**3):
        -0.002739    0.000312    0.000229
         0.000312    0.000111    0.000196
         0.000229    0.000196    0.000317

siesta: Pressure (static):          1.23416105  kBar

siesta: Stress tensor (total) (eV/Ang**3):
        -0.012691    0.000285    0.000339
         0.000286   -0.000161    0.000176
         0.000339    0.000176    0.000210

siesta: Pressure (total):          6.75174516  kBar

siesta: Temp_ion =   12787.013 K

                     ====================================
                        Begin MD step =     14
                     ====================================

outcell: Unit cell vectors (Ang):
       10.000000    0.000000    0.000000
        0.000000   10.000000    0.000000
        0.000000    0.000000   10.000000

outcell: Cell vector modules (Ang)   :   10.000000   10.000000   10.000000
outcell: Cell angles (23,13,12) (deg):     90.0000     90.0000     90.0000
outcell: Cell volume (Ang**3)        :   1000.0000
<dSpData1D:S at geom step 14
  <sparsity:sparsity for geom step 14
    nrows_g=36 nrows=36 sparsity=1.0000 nnzs=1296, refcount: 7>
  <dData1D:(new from dSpData1D) n=1296, refcount: 1>
refcount: 1>
new_DM -- step:    14
Re-using DM from previous geometries...
Number of DMs in history: 1
 DM extrapolation coefficients: 
1   1.00000
New DM after history re-use:
<dSpData2D:SpM extrapolated using coords
  <sparsity:sparsity for geom step 14
    nrows_g=36 nrows=36 sparsity=1.0000 nnzs=1296, refcount: 9>
  <dData2D:(temp array for extrapolation) n=1296 m=1, refcount: 1>
refcount: 1>
Note: For starting DM, Qtot, Tr[D*S] =         14.00000000         13.94780714
No. of atoms with KB's overlaping orbs in proc 0. Max # of overlaps:       4      36
New grid distribution:   1
           1       1:   45    1:   45    1:   45

InitMesh: MESH =    90 x    90 x    90 =      729000
InitMesh: (bp) =    45 x    45 x    45 =       91125
InitMesh: Mesh cutoff (required, used) =   200.000   223.865 Ry
ExtMesh (bp) on 0 =   117 x   117 x   117 =     1601613
PhiOnMesh: Number of (b)points on node 0 =                91125
PhiOnMesh: nlist on node 0 =               451074

        iscf     Eharris(eV)        E_KS(eV)     FreeEng(eV)     dDmax    Ef(eV) dHmax(eV)
   scf:    1     -899.100404     -899.704207     -899.764607  1.021059 -6.739921  0.930152
   scf:    2     -896.244749     -898.745202     -898.745894  0.696630 -7.011593  3.350483
   scf:    3     -900.055522     -899.705617     -899.770652  0.383513 -6.797654  0.389250
   scf:    4     -899.711816     -899.708733     -899.773990  0.003603 -6.798242  0.381492
   scf:    5     -898.112229     -899.341884     -899.347780  0.597845 -6.916397  0.734693
   scf:    6     -899.485225     -899.415230     -899.434846  0.036278 -6.886537  0.614432
   scf:    7     -899.268727     -899.343517     -899.349924  0.035524 -6.899500  0.748350
   scf:    8     -897.122048     -899.221095     -899.236908  0.896272 -6.882920  0.688295
   scf:    9     -899.242343     -899.231744     -899.249089  0.004555 -6.885105  0.676572
   scf:   10     -899.939829     -899.662392     -899.724060  0.248355 -6.884057  0.333026
   scf:   11     -899.729125     -899.697200     -899.761510  0.033906 -6.884276  0.286509
   scf:   12     -898.775438     -899.543345     -899.581524  0.501029 -6.888172  0.466687
   scf:   13     -899.676794     -899.612986     -899.660053  0.048914 -6.878792  0.375781
   scf:   14     -899.807506     -899.724332     -899.784811  0.106981 -6.879100  0.210311
   scf:   15     -899.724472     -899.724402     -899.784890  0.000189 -6.879113  0.210224
   scf:   16     -899.780403     -899.784935     -899.853993  0.161107 -6.879418  0.032234
   scf:   17     -899.654167     -899.742577     -899.805268  0.138645 -6.885738  0.174319
   scf:   18     -899.790960     -899.770385     -899.836647  0.056440 -6.881350  0.105453
   scf:   19     -899.710270     -899.743702     -899.806535  0.053048 -6.877829  0.178501
   scf:   20     -899.785994     -899.785005     -899.853943  0.125984 -6.890209  0.009853
   scf:   21     -899.784900     -899.784984     -899.854010  0.005255 -6.891558  0.008018
   scf:   22     -899.785005     -899.785031     -899.853976  0.007383 -6.892412  0.009196
   scf:   23     -899.784978     -899.785020     -899.854026  0.003648 -6.893417  0.004139
   scf:   24     -899.784983     -899.785004     -899.854027  0.001927 -6.893894  0.003197
   scf:   25     -899.785034     -899.785020     -899.854029  0.001443 -6.894185  0.003741
   scf:   26     -899.784997     -899.785009     -899.854030  0.000829 -6.894497  0.002936
   scf:   27     -899.785017     -899.785014     -899.854031  0.000861 -6.895038  0.001770
   scf:   28     -899.785010     -899.785012     -899.854031  0.000251 -6.894991  0.001310
   scf:   29     -899.785012     -899.785012     -899.854031  0.000082 -6.894987  0.001023
   scf:   30     -899.785011     -899.785011     -899.854031  0.000763 -6.895451  0.000157
   scf:   31     -899.785011     -899.785011     -899.854031  0.000003 -6.895447  0.000148

SCF Convergence by DM+H criterion
max |DM_out - DM_in|         :     0.0000032713
max |H_out - H_in|      (eV) :     0.0001482668
SCF cycle converged after 31 iterations

Using DM_out to compute the final energy and forces
No. of atoms with KB's overlaping orbs in proc 0. Max # of overlaps:       4      36

siesta: E_KS(eV) =             -899.7850

siesta: Atomic forces (eV/Ang):
----------------------------------------
   Tot   -0.058517    0.000552    0.001336
----------------------------------------
   Max    2.744328
   Res    1.055103    sqrt( Sum f_i^2 / 3N )
----------------------------------------
   Max    2.744328    constrained

Stress tensor Voigt[x,y,z,yz,xz,xy] (kbar):      -22.76       -0.28        0.49        0.39        0.51        0.65
(Free)E + p*V (eV/cell)     -895.1647
[...]
  <dData1D:(new from dSpData1D) n=1296, refcount: 1>
refcount: 1>
new_DM -- step:    98
Re-using DM from previous geometries...
Number of DMs in history: 1
 DM extrapolation coefficients: 
1   1.00000
New DM after history re-use:
<dSpData2D:SpM extrapolated using coords
  <sparsity:sparsity for geom step 98
    nrows_g=36 nrows=36 sparsity=1.0000 nnzs=1296, refcount: 9>
  <dData2D:(temp array for extrapolation) n=1296 m=1, refcount: 1>
refcount: 1>
Note: For starting DM, Qtot, Tr[D*S] =         14.00000000         13.95349940
No. of atoms with KB's overlaping orbs in proc 0. Max # of overlaps:       4      36
New grid distribution:   1
           1       1:   45    1:   45    1:   45

InitMesh: MESH =    90 x    90 x    90 =      729000
InitMesh: (bp) =    45 x    45 x    45 =       91125
InitMesh: Mesh cutoff (required, used) =   200.000   223.865 Ry
ExtMesh (bp) on 0 =   117 x   117 x   117 =     1601613
PhiOnMesh: Number of (b)points on node 0 =                91125
PhiOnMesh: nlist on node 0 =               450446

        iscf     Eharris(eV)        E_KS(eV)     FreeEng(eV)     dDmax    Ef(eV) dHmax(eV)
   scf:    1     -896.749886     -897.160783     -897.180438  0.298477 -6.236170  2.104454
   scf:    2     -889.581977     -894.909017     -894.922629  0.519986 -7.688932  9.152892
   scf:    3     -897.906820     -897.355424     -897.378045  0.353084 -6.534144  0.528475
   scf:    4     -897.344729     -897.358142     -897.384922  0.044968 -6.473237  0.670844
   scf:    5     -897.351115     -897.364414     -897.398025  0.052193 -6.591066  0.349080
   scf:    6     -897.148516     -897.299479     -897.319173  0.054125 -6.619003  1.376519
   scf:    7     -897.393385     -897.363876     -897.392556  0.063110 -6.541792  0.454878
   scf:    8     -897.319072     -897.358924     -897.397021  0.061868 -6.533873  0.392821
   scf:    9     -897.376663     -897.371651     -897.404666  0.026985 -6.523112  0.049207
   scf:   10     -897.369729     -897.370799     -897.404620  0.007004 -6.527186  0.040268
   scf:   11     -897.373605     -897.372264     -897.404815  0.009140 -6.532740  0.035024
   scf:   12     -897.373027     -897.372671     -897.404869  0.003429 -6.533371  0.008516
   scf:   13     -897.372565     -897.372620     -897.404877  0.001701 -6.533380  0.004600
   scf:   14     -897.372313     -897.372468     -897.404883  0.001565 -6.533469  0.006059
   scf:   15     -897.372440     -897.372455     -897.404885  0.000428 -6.533731  0.002489
   scf:   16     -897.371760     -897.372113     -897.404896  0.002845 -6.534211  0.002917
   scf:   17     -897.372131     -897.372122     -897.404896  0.000127 -6.534234  0.002812
   scf:   18     -897.372188     -897.372155     -897.404896  0.000335 -6.534434  0.002414
   scf:   19     -897.372156     -897.372155     -897.404896  0.000096 -6.534472  0.002187
   scf:   20     -897.372146     -897.372151     -897.404896  0.000154 -6.534512  0.001890
   scf:   21     -897.372222     -897.372187     -897.404896  0.000442 -6.534723  0.000776
   scf:   22     -897.372214     -897.372200     -897.404896  0.000100 -6.534738  0.000856

SCF Convergence by DM+H criterion
max |DM_out - DM_in|         :     0.0001001726
max |H_out - H_in|      (eV) :     0.0008558022
SCF cycle converged after 22 iterations

Using DM_out to compute the final energy and forces
No. of atoms with KB's overlaping orbs in proc 0. Max # of overlaps:       4      36

siesta: E_KS(eV) =             -897.3722

siesta: Atomic forces (eV/Ang):
----------------------------------------
   Tot   -0.005799   -0.006155    0.000892
----------------------------------------
   Max    4.252968
   Res    2.148149    sqrt( Sum f_i^2 / 3N )
----------------------------------------
   Max    4.252968    constrained

Stress tensor Voigt[x,y,z,yz,xz,xy] (kbar):        4.68        1.61        9.64       -3.17        2.76        1.62
(Free)E + p*V (eV/cell)     -900.7193
Target enthalpy (eV/cell)     -897.4049

siesta: Stress tensor (static) (eV/Ang**3):
         0.005093    0.001467    0.002769
         0.001467    0.001563   -0.002048
         0.002769   -0.002048    0.008928

siesta: Pressure (static):         -8.32254903  kBar

siesta: Stress tensor (total) (eV/Ang**3):
         0.002919    0.001012    0.001723
         0.001012    0.001007   -0.001980
         0.001723   -0.001980    0.006017

siesta: Pressure (total):         -5.31025550  kBar

siesta: Temp_ion =    5894.512 K

                     ====================================
                        Begin MD step =     99
                     ====================================

outcell: Unit cell vectors (Ang):
       10.000000    0.000000    0.000000
        0.000000   10.000000    0.000000
        0.000000    0.000000   10.000000

outcell: Cell vector modules (Ang)   :   10.000000   10.000000   10.000000
outcell: Cell angles (23,13,12) (deg):     90.0000     90.0000     90.0000
outcell: Cell volume (Ang**3)        :   1000.0000
<dSpData1D:S at geom step 99
  <sparsity:sparsity for geom step 99
    nrows_g=36 nrows=36 sparsity=1.0000 nnzs=1296, refcount: 7>
  <dData1D:(new from dSpData1D) n=1296, refcount: 1>
refcount: 1>
new_DM -- step:    99
Re-using DM from previous geometries...
Number of DMs in history: 1
 DM extrapolation coefficients: 
1   1.00000
New DM after history re-use:
<dSpData2D:SpM extrapolated using coords
  <sparsity:sparsity for geom step 99
    nrows_g=36 nrows=36 sparsity=1.0000 nnzs=1296, refcount: 9>
  <dData2D:(temp array for extrapolation) n=1296 m=1, refcount: 1>
refcount: 1>
Note: For starting DM, Qtot, Tr[D*S] =         14.00000000         13.97661855
No. of atoms with KB's overlaping orbs in proc 0. Max # of overlaps:       4      36
New grid distribution:   1
           1       1:   45    1:   45    1:   45

InitMesh: MESH =    90 x    90 x    90 =      729000
InitMesh: (bp) =    45 x    45 x    45 =       91125
InitMesh: Mesh cutoff (required, used) =   200.000   223.865 Ry
ExtMesh (bp) on 0 =   117 x   117 x   117 =     1601613
PhiOnMesh: Number of (b)points on node 0 =                91125
PhiOnMesh: nlist on node 0 =               450591

        iscf     Eharris(eV)        E_KS(eV)     FreeEng(eV)     dDmax    Ef(eV) dHmax(eV)
   scf:    1     -896.464913     -897.021908     -897.038859  0.451973 -6.361310  2.033257
   scf:    2     -887.601266     -894.157496     -894.163085  0.531450 -7.602661  9.932751
   scf:    3     -897.891893     -897.188924     -897.204232  0.344225 -6.585998  0.572680
   scf:    4     -897.104684     -897.170987     -897.190800  0.085181 -6.476713  0.964536
   scf:    5     -897.176992     -897.198578     -897.222706  0.099351 -6.618831  0.398663
   scf:    6     -897.075157     -897.154857     -897.173975  0.042891 -6.663628  1.307176
   scf:    7     -897.188402     -897.199259     -897.229881  0.069728 -6.548354  0.088617
   scf:    8     -897.199695     -897.199482     -897.229996  0.001384 -6.546158  0.081004
   scf:    9     -897.203262     -897.201473     -897.230487  0.011181 -6.543500  0.088914
   scf:   10     -897.207665     -897.205834     -897.230017  0.021966 -6.559252  0.139473
   scf:   11     -897.204119     -897.205309     -897.231030  0.009691 -6.547102  0.025203
   scf:   12     -897.204370     -897.204861     -897.231063  0.004690 -6.549401  0.010808
   scf:   13     -897.204585     -897.204728     -897.231098  0.002680 -6.551174  0.008831
   scf:   14     -897.204451     -897.204591     -897.231106  0.000693 -6.551244  0.004990
   scf:   15     -897.204387     -897.204494     -897.231117  0.002663 -6.551658  0.002300
   scf:   16     -897.204517     -897.204506     -897.231117  0.000131 -6.551675  0.002179
   scf:   17     -897.204024     -897.204267     -897.231121  0.001819 -6.551884  0.001832
   scf:   18     -897.204260     -897.204264     -897.231122  0.000045 -6.551875  0.001764
   scf:   19     -897.204151     -897.204208     -897.231122  0.000657 -6.551986  0.001365
   scf:   20     -897.204216     -897.204212     -897.231122  0.000025 -6.552000  0.001274
   scf:   21     -897.204267     -897.204239     -897.231122  0.000278 -6.552084  0.000187

SCF Convergence by DM+H criterion
max |DM_out - DM_in|         :     0.0002784359
max |H_out - H_in|      (eV) :     0.0001866585
SCF cycle converged after 21 iterations

Using DM_out to compute the final energy and forces
No. of atoms with KB's overlaping orbs in proc 0. Max # of overlaps:       4      36

siesta: E_KS(eV) =             -897.2042

siesta: Atomic forces (eV/Ang):
----------------------------------------
   Tot    0.007537   -0.000251    0.007391
----------------------------------------
   Max    3.886057
   Res    2.035122    sqrt( Sum f_i^2 / 3N )
----------------------------------------
   Max    3.886057    constrained

Stress tensor Voigt[x,y,z,yz,xz,xy] (kbar):        3.82        1.35       10.49       -2.54        2.69        1.86
(Free)E + p*V (eV/cell)     -900.4892
Target enthalpy (eV/cell)     -897.2311

siesta: Stress tensor (static) (eV/Ang**3):
         0.004279    0.001575    0.002029
         0.001576    0.001538   -0.001930
         0.002029   -0.001930    0.008496

siesta: Pressure (static):         -7.64382521  kBar

siesta: Stress tensor (total) (eV/Ang**3):
         0.002386    0.001160    0.001678
         0.001160    0.000843   -0.001588
         0.001678   -0.001588    0.006545

siesta: Pressure (total):         -5.22002393  kBar

siesta: Temp_ion =    5423.248 K

                     ====================================
                        Begin MD step =    100
                     ====================================

outcell: Unit cell vectors (Ang):
       10.000000    0.000000    0.000000
        0.000000   10.000000    0.000000
        0.000000    0.000000   10.000000

outcell: Cell vector modules (Ang)   :   10.000000   10.000000   10.000000
outcell: Cell angles (23,13,12) (deg):     90.0000     90.0000     90.0000
outcell: Cell volume (Ang**3)        :   1000.0000
<dSpData1D:S at geom step 100
  <sparsity:sparsity for geom step 100
    nrows_g=36 nrows=36 sparsity=1.0000 nnzs=1296, refcount: 7>
  <dData1D:(new from dSpData1D) n=1296, refcount: 1>
refcount: 1>
new_DM -- step:   100
Re-using DM from previous geometries...
Number of DMs in history: 1
 DM extrapolation coefficients: 
1   1.00000
New DM after history re-use:
<dSpData2D:SpM extrapolated using coords
  <sparsity:sparsity for geom step 100
    nrows_g=36 nrows=36 sparsity=1.0000 nnzs=1296, refcount: 9>
  <dData2D:(temp array for extrapolation) n=1296 m=1, refcount: 1>
refcount: 1>
No. of atoms with KB's overlaping orbs in proc 0. Max # of overlaps:       4      36
New grid distribution:   1
           1       1:   45    1:   45    1:   45

InitMesh: MESH =    90 x    90 x    90 =      729000
InitMesh: (bp) =    45 x    45 x    45 =       91125
InitMesh: Mesh cutoff (required, used) =   200.000   223.865 Ry
ExtMesh (bp) on 0 =   117 x   117 x   117 =     1601613
PhiOnMesh: Number of (b)points on node 0 =                91125
PhiOnMesh: nlist on node 0 =               451132

        iscf     Eharris(eV)        E_KS(eV)     FreeEng(eV)     dDmax    Ef(eV) dHmax(eV)
   scf:    1     -896.758561     -897.210543     -897.223206  0.613804 -6.523964  1.341537
   scf:    2     -894.967784     -896.554877     -896.575052  0.332815 -7.196949  4.482093
   scf:    3     -897.498801     -897.271680     -897.286170  0.221487 -6.667896  0.502812
   scf:    4     -897.231495     -897.263147     -897.278120  0.059782 -6.581057  0.673395
   scf:    5     -897.230285     -897.265057     -897.283758  0.076402 -6.685235  0.546719
   scf:    6     -897.092376     -897.210662     -897.222617  0.046051 -6.643703  1.158266
   scf:    7     -897.245797     -897.270557     -897.295446  0.067271 -6.598603  0.157643
   scf:    8     -897.274442     -897.272906     -897.296564  0.004679 -6.598074  0.031619
   scf:    9     -897.270687     -897.271916     -897.296203  0.002427 -6.598305  0.089109
   scf:   10     -897.275497     -897.273870     -897.296707  0.014119 -6.604272  0.040844
   scf:   11     -897.274171     -897.274022     -897.296752  0.001154 -6.604793  0.035069
   scf:   12     -897.275693     -897.274927     -897.296908  0.008255 -6.606679  0.009724
   scf:   13     -897.274971     -897.274951     -897.296913  0.000751 -6.606651  0.007010
   scf:   14     -897.275144     -897.275048     -897.296916  0.000770 -6.606287  0.005810
   scf:   15     -897.275170     -897.275109     -897.296918  0.000238 -6.606208  0.005036
   scf:   16     -897.275818     -897.275466     -897.296925  0.002090 -6.606268  0.000937
   scf:   17     -897.275472     -897.275469     -897.296925  0.000028 -6.606286  0.000880

SCF Convergence by DM+H criterion
max |DM_out - DM_in|         :     0.0000275739
max |H_out - H_in|      (eV) :     0.0008799509
SCF cycle converged after 17 iterations

Using DM_out to compute the final energy and forces
No. of atoms with KB's overlaping orbs in proc 0. Max # of overlaps:       4      36

siesta: E_KS(eV) =             -897.2755

siesta: Atomic forces (eV/Ang):
----------------------------------------
   Tot   -0.005448    0.004542    0.001400
----------------------------------------
   Max    3.933732
   Res    1.992917    sqrt( Sum f_i^2 / 3N )
----------------------------------------
   Max    3.933732    constrained

Stress tensor Voigt[x,y,z,yz,xz,xy] (kbar):        2.21        0.88       10.21       -1.65        2.43        1.70
(Free)E + p*V (eV/cell)     -900.0648
Target enthalpy (eV/cell)     -897.2969

siesta: Stress tensor (static) (eV/Ang**3):
         0.003164    0.001461    0.001438
         0.001462    0.001391   -0.001702
         0.001437   -0.001702    0.007925

siesta: Pressure (static):         -6.66467494  kBar

siesta: Stress tensor (total) (eV/Ang**3):
         0.001382    0.001064    0.001517
         0.001064    0.000548   -0.001030
         0.001516   -0.001030    0.006373

siesta: Pressure (total):         -4.43465550  kBar

siesta: Temp_ion =    5573.037 K

coxmol: Writing XMOL coordinates into file xoc.xyz                                                             

siesta: Program's energy decomposition (eV):
siesta: Ebs     =      -183.858440
siesta: Eions   =      1592.294315
siesta: Ena     =       382.224048
siesta: Ekin    =       623.851255
siesta: Enl     =       -88.633111
siesta: Eso     =         0.000000
siesta: Edftu   =         0.000000
siesta: DEna    =       -23.543950
siesta: DUscf   =         3.549334
siesta: DUext   =         0.000000
siesta: Exc     =      -202.428731
siesta: eta*DQ  =         0.000000
siesta: Emadel  =         0.000000
siesta: Emeta   =         0.000000
siesta: Emolmec =         0.000000
siesta: Ekinion =         2.161029
siesta: Eharris =      -895.114443
siesta: Etot    =      -895.114440
siesta: FreeEng =      -895.135896

siesta: Final energy (eV):
siesta:  Band Struct. =    -183.858440
siesta:       Kinetic =     623.851255
siesta:       Hartree =     853.723049
siesta:       Edftu   =       0.000000
siesta:       Eso     =       0.000000
siesta:    Ext. field =       0.000000
siesta:   Exch.-corr. =    -202.428731
siesta:  Ion-electron =   -2257.276766
siesta:       Ion-ion =      84.855724
siesta:       Ekinion =       2.161029
siesta:         Total =    -895.114440
siesta:         Fermi =      -6.606286

siesta: Atomic forces (eV/Ang):
siesta:      1    1.581749    1.509783   -2.086392
siesta:      2    0.832308   -1.041285    3.933732
siesta:      3   -0.606238   -0.684981    1.851709
siesta:      4   -1.813266    0.221024   -3.697649
siesta: ----------------------------------------
siesta:    Tot   -0.005448    0.004542    0.001400

siesta: Stress tensor (static) (eV/Ang**3):
siesta:     0.003164    0.001461    0.001438
siesta:     0.001462    0.001391   -0.001702
siesta:     0.001437   -0.001702    0.007925

siesta: Cell volume =       1000.000000 Ang**3

siesta: Pressure (static):
siesta:                Solid            Molecule  Units
siesta:          -0.00004530         -0.00000011  Ry/Bohr**3
siesta:          -0.00415972         -0.00000996  eV/Ang**3
siesta:          -6.66467494         -0.01596573  kBar
(Free)E+ p_basis*V_orbitals  =        -895.088333
(Free)Eharris+ p_basis*V_orbitals  =        -895.088336

siesta: Electric dipole (a.u.)  =    0.690776    0.440650    0.338404
siesta: Electric dipole (Debye) =    1.755778    1.120021    0.860137

cite: Please see "xoc.bib" for an exhaustive BiBTeX file.
cite: Please clearly indicate Siesta version in published work: 4.1.5
cite: This calculation has made use of the following articles
cite: which are encouraged to be cited in a published work.
        Primary SIESTA paper
          DOI: www.doi.org/10.1088/0953-8984/14/11/302


timer: Elapsed wall time (sec) =    2324.854
timer: CPU execution times (sec):

Routine            Calls   Time/call    Tot.time        %
siesta                 1    6218.824    6218.824   100.00
Setup                  1       0.250       0.250     0.00
bands                  1       0.000       0.000     0.00
KSV_init               1       0.000       0.000     0.00
IterGeom             100      62.186    6218.562   100.00
state_init           100       0.004       0.402     0.01
hsparse              100       0.000       0.041     0.00
overlap              100       0.003       0.292     0.00
Setup_H0             100       0.694      69.375     1.12
naefs                200       0.000       0.009     0.00
MolMec               200       0.000       0.000     0.00
kinefsm              200       0.002       0.360     0.01
nlefsm               200       0.008       1.630     0.03
DHSCF_Init           100       0.677      67.733     1.09
DHSCF1               100       0.045       4.534     0.07
INITMESH             100       0.000       0.000     0.00
DHSCF2               100       0.632      63.198     1.02
REMESH               100       0.103      10.287     0.17
REORD               8536       0.006      52.432     0.84
PHION                100       0.417      41.664     0.67
COMM_BSC           14372       0.005      66.671     1.07
POISON              3618       0.437    1582.509    25.45
fft                 7236       0.162    1172.191    18.85
IterSCF             3318       1.815    6023.465    96.86
setup_H             3418       1.760    6014.963    96.72
DHSCF               3518       1.744    6134.508    98.64
DHSCF3              3518       1.724    6064.353    97.52
rhoofd              3518       0.466    1640.713    26.38
XC                  3518       0.654    2301.454    37.01
GXC-CellXC          3518       0.641    2256.702    36.29
cellXC              3518       0.641    2256.549    36.29
vmat                3518       0.029     103.237     1.66
compute_dm          3318       0.002       6.694     0.11
diagon              3318       0.002       6.505     0.10
r-eigvec            3318       0.001       2.478     0.04
r-buildHS           3318       0.000       0.033     0.00
rdiag               3318       0.001       2.373     0.04
rdiag1              3318       0.000       0.069     0.00
rdiag2              3318       0.000       0.117     0.00
rdiag3              3318       0.000       0.812     0.01
rdiag4              3318       0.000       1.185     0.02
r-buildD            3318       0.001       3.155     0.05
MIXER               3218       0.000       0.231     0.00
PostSCF              100       1.251     125.056     2.01
DHSCF4               100       0.701      70.116     1.13
dfscf                100       0.620      62.009     1.00
overfsm              100       0.001       0.072     0.00
state_analysis       100       0.000       0.047     0.00
siesta_move          100       0.002       0.161     0.00
Analysis               1       0.002       0.002     0.00
siesta_analysis        1       0.002       0.002     0.00
optical                1       0.000       0.000     0.00
  
>> End of run:  15-MAR-2024  11:04:01
Job completed
Job completed
