Siesta Version  : 4.1.5
Architecture    : unknown
Compiler version: GNU Fortran (GCC) 12.3.0
Compiler flags  : x86_64-apple-darwin13.4.0-gfortran -march=core2 -mtune=haswell -ftree-vectoriize -fPIC -fstack-protector -O2 -pipe  -fallow-argument-mismatch
PP flags        : -DFC_HAVE_ABORT -DCDF -DNCDF -DNCDF_4
Libraries       : libncdf.a libfdict.a -llapack -lblas -lnetcdff -lnetcdf -lhdf5_hl -lhdf5 -lz
SERIAL version
NetCDF support
NetCDF-4 support

* Running in serial mode
>> Start of run:  15-MAR-2024  12:49:11

                           ***********************       
                           *  WELCOME TO SIESTA  *       
                           ***********************       

reinit: Reading from xoc.fdf

reinit: -----------------------------------------------------------------------
reinit: System Name: H2 + O2 -> H2O2 reaction
reinit: -----------------------------------------------------------------------
reinit: System Label: xoc
reinit: -----------------------------------------------------------------------

initatom: Reading input for the pseudopotentials and atomic orbitals ----------
Species number:   1 Atomic number:    8 Label: O
Species number:   2 Atomic number:    1 Label: H

Ground state valence configuration:   2s02  2p04
Reading pseudopotential information in formatted form from O.psf

Pseudopotential generated from a relativistic atomic calculation

Valence configuration for pseudopotential generation:
2s( 2.00) rc: 1.14
2p( 4.00) rc: 1.14
3d( 0.00) rc: 1.14
4f( 0.00) rc: 1.14
Ground state valence configuration:   1s01
Reading pseudopotential information in unformatted form from H.vps

Valence configuration for pseudopotential generation:
1s( 1.00) rc: 1.25
2p( 0.00) rc: 1.25
3d( 0.00) rc: 1.25
4f( 0.00) rc: 1.25
For O, standard SIESTA heuristics set lmxkb to 3
 (one more than the basis l, including polarization orbitals).
Use PS.lmax or PS.KBprojectors blocks to override.
For H, standard SIESTA heuristics set lmxkb to 2
 (one more than the basis l, including polarization orbitals).
Use PS.lmax or PS.KBprojectors blocks to override.

<basis_specs>
===============================================================================
O                    Z=   8    Mass=  16.000        Charge=-0.18518    
Lmxo=2 Lmxkb= 3    BasisType=split      Semic=F
L=0  Nsemic=0  Cnfigmx=2
          i=1  nzeta=2  polorb=0  (2s)
            splnorm:   0.15000    
               vcte:    87.074    
               rinn:    4.7393    
               qcoe:    0.0000    
               qyuk:    0.0000    
               qwid:   0.10000E-01
                rcs:    7.3294      4.6037    
            lambdas:    1.0000      1.0000    
L=1  Nsemic=0  Cnfigmx=2
          i=1  nzeta=2  polorb=0  (2p)
            splnorm:   0.15000    
               vcte:    68.296    
               rinn:    4.9704    
               qcoe:    0.0000    
               qyuk:    0.0000    
               qwid:   0.10000E-01
                rcs:    6.6025      3.0467    
            lambdas:    1.0000      1.0000    
L=2  Nsemic=0  Cnfigmx=3
          i=1  nzeta=1  polorb=0  (3d)
            splnorm:   0.15000    
               vcte:    91.071    
               rinn:    3.9512    
               qcoe:    0.0000    
               qyuk:    0.0000    
               qwid:   0.10000E-01
                rcs:    6.8934    
            lambdas:    1.0000    
-------------------------------------------------------------------------------
L=0  Nkbl=1  erefs: 0.17977+309
L=1  Nkbl=1  erefs: 0.17977+309
L=2  Nkbl=1  erefs: 0.17977+309
L=3  Nkbl=1  erefs: 0.17977+309
===============================================================================
</basis_specs>

atom: Called for O                     (Z =   8)

read_vps: Pseudopotential generation method:
read_vps: ATM3      Troullier-Martins                       
Valence charge for ps generation:    6.00000

read_vps: Pseudopotential includes a core correction:
read_vps: Pseudo-core for xc-correction

xc_check: Exchange-correlation functional:
xc_check: GGA Perdew, Burke & Ernzerhof 1996
V l=0 = -2*Zval/r beyond r=  1.1278
V l=1 = -2*Zval/r beyond r=  1.1278
V l=2 = -2*Zval/r beyond r=  1.1278
V l=3 = -2*Zval/r beyond r=  1.1278
All V_l potentials equal beyond r=  1.1278
This should be close to max(r_c) in ps generation
All pots = -2*Zval/r beyond r=  1.1278

VLOCAL1: 99.0% of the norm of Vloc inside     34.126 Ry
VLOCAL1: 99.9% of the norm of Vloc inside     77.774 Ry
atom: Maximum radius for 4*pi*r*r*local-pseudopot. charge    1.37759
atom: Maximum radius for r*vlocal+2*Zval:    1.18566
GHOST: No ghost state for L =  0
GHOST: No ghost state for L =  1
GHOST: No ghost state for L =  2
GHOST: No ghost state for L =  3

KBgen: Kleinman-Bylander projectors: 
   l= 0   rc=  1.360471   el= -1.759790   Ekb=  9.210761   kbcos=  0.328866
   l= 1   rc=  1.360471   el= -0.663797   Ekb= -7.921990   kbcos= -0.392961
   l= 2   rc=  1.791199   el=  0.002031   Ekb= -1.950550   kbcos= -0.003498
   l= 3   rc=  2.107308   el=  0.003153   Ekb= -0.856060   kbcos= -0.000334

KBgen: Total number of Kleinman-Bylander projectors:   16
atom: -------------------------------------------------------------------------

atom: SANKEY-TYPE ORBITALS:
atom: Selected multiple-zeta basis: split     

atom: basis set generated (by rescaling the valence charge)
atom: for an anion of charge  -0.1852

SPLIT: Orbitals with angular momentum L= 0

SPLIT: Basis orbitals for state 2s

   izeta = 1
                 lambda =    1.000000
                     rc =    7.356000
                 energy =   -1.758588
                kinetic =    1.491851
    potential(screened) =   -3.250439
       potential(ionic) =  -11.062471

   izeta = 2
                 rmatch =    4.690281
              splitnorm =    0.003309
                 energy =   -1.757602
* WARNING: effective split_norm is quite small. Orbitals will be very similar.
                kinetic =    1.574378
    potential(screened) =   -3.331980
       potential(ionic) =  -11.238433

SPLIT: Orbitals with angular momentum L= 1

SPLIT: Basis orbitals for state 2p

   izeta = 1
                 lambda =    1.000000
                     rc =    6.655955
                 energy =   -0.659921
                kinetic =    4.410674
    potential(screened) =   -5.070596
       potential(ionic) =  -12.498772

   izeta = 2
                 rmatch =    3.066256
              splitnorm =    0.127283
                 energy =   -0.537509
                kinetic =    6.271972
    potential(screened) =   -6.809481
       potential(ionic) =  -15.130217

SPLIT: Orbitals with angular momentum L= 2

SPLIT: Basis orbitals for state 3d

   izeta = 1
                 lambda =    1.000000
                     rc =    6.997229
                 energy =    0.764795
                kinetic =    1.136799
    potential(screened) =   -0.372004
       potential(ionic) =   -3.984199
atom: Total number of Sankey-type orbitals: 13

atm_pop: Valence configuration (for local Pseudopot. screening):
 2s( 2.00)                                                            
 2p( 4.00)                                                            
 3d( 0.00)                                                            
Vna: chval, zval:    6.00000   6.00000

Vna:  Cut-off radius for the neutral-atom potential:   7.356000
comcore: Pseudo-core radius Rcore=  1.377587

atom: _________________________________________________________________________

<basis_specs>
===============================================================================
H                    Z=   1    Mass=  1.0100        Charge= 0.22000    
Lmxo=1 Lmxkb= 2    BasisType=split      Semic=F
L=0  Nsemic=0  Cnfigmx=1
          i=1  nzeta=2  polorb=0  (1s)
            splnorm:   0.15000    
               vcte:    2.0700    
               rinn:    0.0000    
               qcoe:    0.0000    
               qyuk:    0.0000    
               qwid:   0.10000E-01
                rcs:    4.9710      1.7710    
            lambdas:    1.0000      1.0000    
L=1  Nsemic=0  Cnfigmx=2
          i=1  nzeta=1  polorb=0  (2p)
            splnorm:   0.15000    
               vcte:   0.89000    
               rinn:   0.10000E-01
               qcoe:    0.0000    
               qyuk:    0.0000    
               qwid:   0.10000E-01
                rcs:    4.9880    
            lambdas:    1.0000    
-------------------------------------------------------------------------------
L=0  Nkbl=1  erefs: 0.17977+309
L=1  Nkbl=1  erefs: 0.17977+309
L=2  Nkbl=1  erefs: 0.17977+309
===============================================================================
</basis_specs>

atom: Called for H                     (Z =   1)

read_vps: Pseudopotential generation method:
read_vps: ATM3      Troullier-Martins                       
Valence charge for ps generation:    1.00000

xc_check: Exchange-correlation functional:
xc_check: GGA Perdew, Burke & Ernzerhof 1996
V l=0 = -2*Zval/r beyond r=  1.2343
V l=1 = -2*Zval/r beyond r=  1.2189
V l=2 = -2*Zval/r beyond r=  1.2189
All V_l potentials equal beyond r=  1.2343
This should be close to max(r_c) in ps generation
All pots = -2*Zval/r beyond r=  1.2343

VLOCAL1: 99.0% of the norm of Vloc inside     28.493 Ry
VLOCAL1: 99.9% of the norm of Vloc inside     64.935 Ry
atom: Maximum radius for 4*pi*r*r*local-pseudopot. charge    1.45251
atom: Maximum radius for r*vlocal+2*Zval:    1.21892
GHOST: No ghost state for L =  0
GHOST: No ghost state for L =  1
GHOST: No ghost state for L =  2

KBgen: Kleinman-Bylander projectors: 
   l= 0   rc=  1.364359   el= -0.477200   Ekb= -2.021939   kbcos= -0.344793
   l= 1   rc=  1.434438   el=  0.001076   Ekb= -0.443447   kbcos= -0.022843
   l= 2   rc=  1.470814   el=  0.002010   Ekb= -0.140543   kbcos= -0.002863

KBgen: Total number of Kleinman-Bylander projectors:    9
atom: -------------------------------------------------------------------------

atom: SANKEY-TYPE ORBITALS:
atom: Selected multiple-zeta basis: split     

atom: basis set generated (by rescaling the valence charge)
atom: for a cation of charge   0.2200

SPLIT: Orbitals with angular momentum L= 0

SPLIT: Basis orbitals for state 1s

   izeta = 1
                 lambda =    1.000000
                     rc =    4.950554
                 energy =   -0.678603
                kinetic =    1.118239
    potential(screened) =   -1.796842
       potential(ionic) =   -2.106311

   izeta = 2
                 rmatch =    1.774652
              splitnorm =    0.672347
                 energy =    1.027037
                kinetic =    4.730146
    potential(screened) =   -3.703109
       potential(ionic) =   -3.968059

SPLIT: Orbitals with angular momentum L= 1

SPLIT: Basis orbitals for state 2p

   izeta = 1
                 lambda =    1.000000
                     rc =    5.075940
                 energy =    0.310352
                kinetic =    0.887169
    potential(screened) =   -0.576817
       potential(ionic) =   -0.872649
atom: Total number of Sankey-type orbitals:  5

atm_pop: Valence configuration (for local Pseudopot. screening):
 1s( 1.00)                                                            
 2p( 0.00)                                                            
Vna: chval, zval:    1.00000   1.00000

Vna:  Cut-off radius for the neutral-atom potential:   4.950554

atom: _________________________________________________________________________

prinput: Basis input ----------------------------------------------------------

PAO.BasisType split     

%block ChemicalSpeciesLabel
    1    8 O                       # Species index, atomic number, species label
    2    1 H                       # Species index, atomic number, species label
%endblock ChemicalSpeciesLabel

%block PAO.Basis                 # Define Basis set
O                     3  -0.185            # Label, l-shells, ionic net charge
 n=2   0   2                         # n, l, Nzeta 
   7.356      4.690   
   1.000      1.000   
 n=2   1   2                         # n, l, Nzeta 
   6.656      3.066   
   1.000      1.000   
 n=3   2   1                         # n, l, Nzeta 
   6.997   
   1.000   
H                     2   0.220            # Label, l-shells, ionic net charge
 n=1   0   2                         # n, l, Nzeta 
   4.951      1.775   
   1.000      1.000   
 n=2   1   1                         # n, l, Nzeta 
   5.076   
   1.000   
%endblock PAO.Basis

prinput: ----------------------------------------------------------------------

Dumping basis to NetCDF file O.ion.nc
Dumping basis to NetCDF file H.ion.nc
coor:   Atomic-coordinates input format  =     Cartesian coordinates
coor:                                          (in Angstroms)

ioxv: Reading coordinates and velocities from file
! Info in XV file prevails over previous structure input
WARNING: xoc.VERLET_RESTART not found--reading only XV file and moving back 1 time step using Euler

siesta: Atomic coordinates (Bohr) and species
siesta:      2.54735  -0.00100  -0.00070  1        1
siesta:      5.01155  -0.00100  -0.00070  1        2
siesta:      8.94052   0.01600   0.01130  2        3
siesta:     10.34566   0.01600   0.01130  2        4

siesta: System type = chain     

initatomlists: Number of atoms, orbitals, and projectors:      4    36    50

coxmol: Writing XMOL coordinates into file xoc.xyz                                                             

siesta: ******************** Simulation parameters ****************************
siesta:
siesta: The following are some of the parameters of the simulation.
siesta: A complete list of the parameters used, including default values,
siesta: can be found in file out.fdf
siesta:
redata: Spin configuration                          = none
redata: Number of spin components                   = 1
redata: Time-Reversal Symmetry                      = T
redata: Spin spiral                                 = F
redata: Long output                                 =   F
redata: Number of Atomic Species                    =        2
redata: Charge density info will appear in .RHO file
redata: Write Mulliken Pop.                         = NO
redata: Matel table size (NRTAB)                    =     1024
redata: Mesh Cutoff                                 =   200.0000 Ry
redata: Net charge of the system                    =     0.0000 |e|
redata: Min. number of SCF Iter                     =        0
redata: Max. number of SCF Iter                     =      150
redata: SCF convergence failure will abort job
redata: SCF mix quantity                            = Hamiltonian
redata: Mix DM or H after convergence               =   F
redata: Recompute H after scf cycle                 =   F
redata: Mix DM in first SCF step                    =   T
redata: Write Pulay info on disk                    =   F
redata: New DM Occupancy tolerance                  = 0.000000000001
redata: No kicks to SCF
redata: DM Mixing Weight for Kicks                  =     0.5000
redata: Require Harris convergence for SCF          =   F
redata: Harris energy tolerance for SCF             =     0.000100 eV
redata: Require DM convergence for SCF              =   T
redata: DM tolerance for SCF                        =     0.000300
redata: Require EDM convergence for SCF             =   F
redata: EDM tolerance for SCF                       =     0.001000 eV
redata: Require H convergence for SCF               =   T
redata: Hamiltonian tolerance for SCF               =     0.001000 eV
redata: Require (free) Energy convergence for SCF   =   F
redata: (free) Energy tolerance for SCF             =     0.000100 eV
redata: Using Saved Data (generic)                  =   F
redata: Use continuation files for DM               =   F
redata: Neglect nonoverlap interactions             =   F
redata: Method of Calculation                       = Diagonalization
redata: Electronic Temperature                      =   290.1109 K
redata: Fix the spin of the system                  =   F
redata: Dynamics option                             = Verlet MD run
redata: Initial MD time step                        =        1
redata:   Final MD time step                        =      100
redata: Length of MD time step                      =     1.0000 fs
redata: Initial Temperature of MD run               =     0.0000 K
redata: Perform a MD quench                         =   F
mix.SCF: Pulay mixing                            = Pulay
mix.SCF:    Variant                              = stable
mix.SCF:    History steps                        = 6
mix.SCF:    Linear mixing weight                 =     0.020000
mix.SCF:    Mixing weight                        =     0.020000
mix.SCF:    SVD condition                        = 0.1000E-07
redata: Save all siesta data in one NC              =   F
redata: ***********************************************************************

%block SCF.Mixers
  Pulay
%endblock SCF.Mixers

%block SCF.Mixer.Pulay
  # Mixing method
  method pulay
  variant stable

  # Mixing options
  weight 0.0200
  weight.linear 0.0200
  history 6
%endblock SCF.Mixer.Pulay

Size of DM history Fstack: 1
Total number of electrons:    14.000000
Total ionic charge:    14.000000
 Kpoints in:            1 . Kpoints trimmed:            1

siesta: k-grid: Number of k-points =     1
siesta: k-grid: Cutoff (effective) =     5.000 Ang
siesta: k-grid: Supercell and displacements
siesta: k-grid:    1   0   0      0.000
siesta: k-grid:    0   1   0      0.000
siesta: k-grid:    0   0   1      0.000

diag: Algorithm                                     = D&C
diag: Used triangular part                          = Lower
diag: Absolute tolerance                            =  0.100E-15
diag: Orthogonalization factor                      =  0.100E-05
diag: Memory factor                                 =  1.0000


ts: **************************************************************
ts: Save H and S matrices                           =    F
ts: Save DM and EDM matrices                        =    F
ts: Only save the overlap matrix S                  =    F
ts: **************************************************************

************************ Begin: TS CHECKS AND WARNINGS ************************
************************ End: TS CHECKS AND WARNINGS **************************


                     ====================================
                        Begin MD step =      1
                     ====================================

outcell: Unit cell vectors (Ang):
       10.000000    0.000000    0.000000
        0.000000   10.000000    0.000000
        0.000000    0.000000   10.000000

outcell: Cell vector modules (Ang)   :   10.000000   10.000000   10.000000
outcell: Cell angles (23,13,12) (deg):     90.0000     90.0000     90.0000
outcell: Cell volume (Ang**3)        :   1000.0000
Gamma-point calculation with multiply-connected orbital pairs
Gamma-point calculation with multiply-connected orbital pairs
Folding of H and S implicitly performed
Folding of H and S implicitly performed
<dSpData1D:S at geom step 1
  <sparsity:sparsity for geom step 1
    nrows_g=36 nrows=36 sparsity=.9892 nnzs=1282, refcount: 7>
  <dData1D:(new from dSpData1D) n=1282, refcount: 1>
refcount: 1>
new_DM -- step:     1
Initializing Density Matrix...
DM filled with atomic data:
<dSpData2D:DM initialized from atoms
  <sparsity:sparsity for geom step 1
    nrows_g=36 nrows=36 sparsity=.9892 nnzs=1282, refcount: 8>
  <dData2D:DM n=1282 m=1, refcount: 1>
refcount: 1>
No. of atoms with KB's overlaping orbs in proc 0. Max # of overlaps:       4      34
New grid distribution:   1
           1       1:   45    1:   45    1:   45

InitMesh: MESH =    90 x    90 x    90 =      729000
InitMesh: (bp) =    45 x    45 x    45 =       91125
InitMesh: Mesh cutoff (required, used) =   200.000   223.865 Ry
ExtMesh (bp) on 0 =   117 x   117 x   117 =     1601613
PhiOnMesh: Number of (b)points on node 0 =                91125
PhiOnMesh: nlist on node 0 =               451216

stepf: Fermi-Dirac step function

siesta: Program's energy decomposition (eV):
siesta: Ebs     =      -191.330732
siesta: Eions   =      1592.294315
siesta: Ena     =       380.083137
siesta: Ekin    =       663.598657
siesta: Enl     =      -100.106741
siesta: Eso     =         0.000000
siesta: Edftu   =         0.000000
siesta: DEna    =       -43.105355
siesta: DUscf   =         2.982393
siesta: DUext   =         0.000000
siesta: Exc     =      -211.041594
siesta: eta*DQ  =         0.000000
siesta: Emadel  =         0.000000
siesta: Emeta   =         0.000000
siesta: Emolmec =         0.000000
siesta: Ekinion =         0.000000
siesta: Eharris =      -900.288294
siesta: Etot    =      -899.883818
siesta: FreeEng =      -899.953132

        iscf     Eharris(eV)        E_KS(eV)     FreeEng(eV)     dDmax    Ef(eV) dHmax(eV)
   scf:    1     -900.288294     -899.883818     -899.953132  3.914794 -9.450247  4.741974
timer: Routine,Calls,Time,% = IterSCF        1       2.452  49.70
   scf:    2     -899.965872     -899.924975     -899.994290  0.060140 -9.360874  4.575756
   scf:    3     -900.918839     -900.549641     -900.618955  2.288651 -6.844025  0.711800
   scf:    4     -900.456651     -900.511058     -900.580372  0.663388 -6.302116  1.732690
   scf:    5     -900.523940     -900.520606     -900.589920  0.241878 -6.298004  1.459214
   scf:    6     -900.588855     -900.562407     -900.631721  0.612482 -6.827691  0.228740
   scf:    7     -900.546833     -900.557184     -900.626499  0.328657 -7.133761  0.535982
   scf:    8     -900.566180     -900.563059     -900.632372  0.217165 -6.910454  0.072945
   scf:    9     -900.563139     -900.563165     -900.632479  0.024321 -6.883956  0.032867
   scf:   10     -900.563171     -900.563173     -900.632488  0.002590 -6.883211  0.029624
   scf:   11     -900.563194     -900.563188     -900.632502  0.012292 -6.895376  0.002736
   scf:   12     -900.563187     -900.563188     -900.632502  0.002227 -6.893699  0.003400
   scf:   13     -900.563188     -900.563188     -900.632502  0.000561 -6.894240  0.002955
   scf:   14     -900.563188     -900.563188     -900.632503  0.001348 -6.893893  0.000787
   scf:   15     -900.563188     -900.563188     -900.632503  0.000066 -6.893860  0.000730

SCF Convergence by DM+H criterion
max |DM_out - DM_in|         :     0.0000663133
max |H_out - H_in|      (eV) :     0.0007300887
SCF cycle converged after 15 iterations

Using DM_out to compute the final energy and forces
No. of atoms with KB's overlaping orbs in proc 0. Max # of overlaps:       4      34

siesta: E_KS(eV) =             -900.5632

siesta: E_KS - E_eggbox =      -900.5632

siesta: Atomic forces (eV/Ang):
----------------------------------------
   Tot    0.026176    0.000483    0.000399
----------------------------------------
   Max    0.277804
   Res    0.096420    sqrt( Sum f_i^2 / 3N )
----------------------------------------
   Max    0.277804    constrained

Stress tensor Voigt[x,y,z,yz,xz,xy] (kbar):      -17.54       -0.42       -0.25       -0.10        0.04        0.26
(Free)E + p*V (eV/cell)     -896.8451
Target enthalpy (eV/cell)     -900.6325

siesta: Stress tensor (static) (eV/Ang**3):
        -0.000751   -0.000002   -0.000002
        -0.000002    0.000006   -0.000000
        -0.000002   -0.000000    0.000006

siesta: Pressure (static):          0.39470891  kBar

siesta: Stress tensor (total) (eV/Ang**3):
        -0.010949    0.000161    0.000027
         0.000161   -0.000259   -0.000060
         0.000027   -0.000060   -0.000154

siesta: Pressure (total):          6.06818371  kBar

siesta: Temp_ion =   13797.487 K

                     ====================================
                        Begin MD step =      2
                     ====================================

outcell: Unit cell vectors (Ang):
       10.000000    0.000000    0.000000
        0.000000   10.000000    0.000000
        0.000000    0.000000   10.000000

outcell: Cell vector modules (Ang)   :   10.000000   10.000000   10.000000
outcell: Cell angles (23,13,12) (deg):     90.0000     90.0000     90.0000
outcell: Cell volume (Ang**3)        :   1000.0000
Gamma-point calculation with multiply-connected orbital pairs
Gamma-point calculation with multiply-connected orbital pairs
Folding of H and S implicitly performed
Folding of H and S implicitly performed
<dSpData1D:S at geom step 2
  <sparsity:sparsity for geom step 2
    nrows_g=36 nrows=36 sparsity=.9954 nnzs=1290, refcount: 7>
  <dData1D:(new from dSpData1D) n=1290, refcount: 1>
refcount: 1>
new_DM -- step:     2
Re-using DM from previous geometries...
Number of DMs in history: 1
 DM extrapolation coefficients: 
1   1.00000
New DM after history re-use:
<dSpData2D:SpM extrapolated using coords
  <sparsity:sparsity for geom step 2
    nrows_g=36 nrows=36 sparsity=.9954 nnzs=1290, refcount: 9>
  <dData2D:(temp array for extrapolation) n=1290 m=1, refcount: 1>
refcount: 1>
No. of atoms with KB's overlaping orbs in proc 0. Max # of overlaps:       4      35
New grid distribution:   1
           1       1:   45    1:   45    1:   45

InitMesh: MESH =    90 x    90 x    90 =      729000
InitMesh: (bp) =    45 x    45 x    45 =       91125
InitMesh: Mesh cutoff (required, used) =   200.000   223.865 Ry
ExtMesh (bp) on 0 =   117 x   117 x   117 =     1601613
PhiOnMesh: Number of (b)points on node 0 =                91125
PhiOnMesh: nlist on node 0 =               451192

        iscf     Eharris(eV)        E_KS(eV)     FreeEng(eV)     dDmax    Ef(eV) dHmax(eV)
   scf:    1     -900.265860     -900.472846     -900.542160  1.628768 -6.934445  0.271373
   scf:    2     -900.362453     -900.439072     -900.508288  0.147887 -6.815954  0.858995
   scf:    3     -900.481554     -900.474420     -900.543734  0.119142 -6.910461  0.110776
   scf:    4     -900.474375     -900.474594     -900.543895  0.053187 -6.871737  0.031700
   scf:    5     -900.474595     -900.474716     -900.544031  0.011107 -6.865066  0.038350
   scf:    6     -900.474758     -900.474747     -900.544061  0.002942 -6.867776  0.019912
   scf:    7     -900.474774     -900.474769     -900.544084  0.006902 -6.869468  0.002470
   scf:    8     -900.474769     -900.474769     -900.544084  0.000501 -6.869931  0.002041
   scf:    9     -900.474769     -900.474769     -900.544084  0.000531 -6.869853  0.000322
   scf:   10     -900.474769     -900.474769     -900.544084  0.000060 -6.869869  0.000243

SCF Convergence by DM+H criterion
max |DM_out - DM_in|         :     0.0000596712
max |H_out - H_in|      (eV) :     0.0002428504
SCF cycle converged after 10 iterations

Using DM_out to compute the final energy and forces
No. of atoms with KB's overlaping orbs in proc 0. Max # of overlaps:       4      35

siesta: E_KS(eV) =             -900.4748

siesta: Atomic forces (eV/Ang):
----------------------------------------
   Tot    0.052708    0.000328    0.000777
----------------------------------------
   Max    0.714042
   Res    0.286836    sqrt( Sum f_i^2 / 3N )
----------------------------------------
   Max    0.714042    constrained

Stress tensor Voigt[x,y,z,yz,xz,xy] (kbar):      -20.58       -0.42       -0.25       -0.10        0.01        0.22
(Free)E + p*V (eV/cell)     -896.1239
Target enthalpy (eV/cell)     -900.5441

siesta: Stress tensor (static) (eV/Ang**3):
        -0.002645   -0.000025   -0.000024
        -0.000025    0.000004   -0.000001
        -0.000024   -0.000001    0.000004

siesta: Pressure (static):          1.40845837  kBar

siesta: Stress tensor (total) (eV/Ang**3):
        -0.012843    0.000138    0.000005
         0.000138   -0.000261   -0.000061
         0.000006   -0.000061   -0.000156

siesta: Pressure (total):          7.08193317  kBar

siesta: Temp_ion =   13535.415 K

                     ====================================
                        Begin MD step =      3
                     ====================================

outcell: Unit cell vectors (Ang):
       10.000000    0.000000    0.000000
        0.000000   10.000000    0.000000
        0.000000    0.000000   10.000000

outcell: Cell vector modules (Ang)   :   10.000000   10.000000   10.000000
outcell: Cell angles (23,13,12) (deg):     90.0000     90.0000     90.0000
outcell: Cell volume (Ang**3)        :   1000.0000
Gamma-point calculation with multiply-connected orbital pairs
Gamma-point calculation with multiply-connected orbital pairs
Folding of H and S implicitly performed
Folding of H and S implicitly performed
<dSpData1D:S at geom step 3
  <sparsity:sparsity for geom step 3
    nrows_g=36 nrows=36 sparsity=.9954 nnzs=1290, refcount: 7>
  <dData1D:(new from dSpData1D) n=1290, refcount: 1>
refcount: 1>
new_DM -- step:     3
Re-using DM from previous geometries...
Number of DMs in history: 1
 DM extrapolation coefficients: 
1   1.00000
New DM after history re-use:
<dSpData2D:SpM extrapolated using coords
  <sparsity:sparsity for geom step 3
    nrows_g=36 nrows=36 sparsity=.9954 nnzs=1290, refcount: 9>
  <dData2D:(temp array for extrapolation) n=1290 m=1, refcount: 1>
refcount: 1>
Note: For starting DM, Qtot, Tr[D*S] =         14.00000000         13.97976226
No. of atoms with KB's overlaping orbs in proc 0. Max # of overlaps:       4      35
New grid distribution:   1
           1       1:   45    1:   45    1:   45

InitMesh: MESH =    90 x    90 x    90 =      729000
InitMesh: (bp) =    45 x    45 x    45 =       91125
InitMesh: Mesh cutoff (required, used) =   200.000   223.865 Ry
ExtMesh (bp) on 0 =   117 x   117 x   117 =     1601613
PhiOnMesh: Number of (b)points on node 0 =                91125
PhiOnMesh: nlist on node 0 =               451177

        iscf     Eharris(eV)        E_KS(eV)     FreeEng(eV)     dDmax    Ef(eV) dHmax(eV)
   scf:    1     -899.915182     -900.258649     -900.327957  0.900203 -6.779350  0.588048
   scf:    2     -899.374743     -899.986796     -900.055433  0.355350 -6.935379  2.290689
   scf:    3     -900.323594     -900.269885     -900.339196  0.287436 -6.812880  0.333924
   scf:    4     -900.263280     -900.268480     -900.337576  0.102310 -6.893634  0.077302
   scf:    5     -900.270604     -900.269630     -900.338825  0.012754 -6.883452  0.050586
   scf:    6     -900.270926     -900.270935     -900.340249  0.028299 -6.887974  0.043142
   scf:    7     -900.270972     -900.270973     -900.340287  0.015266 -6.867131  0.013132
   scf:    8     -900.270988     -900.270983     -900.340297  0.002934 -6.869918  0.005610
   scf:    9     -900.270981     -900.270983     -900.340298  0.002016 -6.872321  0.002138
   scf:   10     -900.270984     -900.270984     -900.340298  0.000448 -6.871937  0.000842
   scf:   11     -900.270984     -900.270984     -900.340299  0.000558 -6.872103  0.000284
   scf:   12     -900.270984     -900.270984     -900.340299  0.000007 -6.872107  0.000276

SCF Convergence by DM+H criterion
max |DM_out - DM_in|         :     0.0000065603
max |H_out - H_in|      (eV) :     0.0002761425
SCF cycle converged after 12 iterations

Using DM_out to compute the final energy and forces
No. of atoms with KB's overlaping orbs in proc 0. Max # of overlaps:       4      35

siesta: E_KS(eV) =             -900.2710

siesta: Atomic forces (eV/Ang):
----------------------------------------
   Tot    0.043599   -0.001029   -0.000063
----------------------------------------
   Max    1.445487
   Res    0.524295    sqrt( Sum f_i^2 / 3N )
----------------------------------------
   Max    1.445487    constrained

Stress tensor Voigt[x,y,z,yz,xz,xy] (kbar):      -24.01       -0.43       -0.26       -0.11       -0.02        0.16
(Free)E + p*V (eV/cell)     -895.2008
Target enthalpy (eV/cell)     -900.3403

siesta: Stress tensor (static) (eV/Ang**3):
        -0.004993   -0.000057   -0.000039
        -0.000057   -0.000001   -0.000006
        -0.000039   -0.000006   -0.000003

siesta: Pressure (static):          2.66880180  kBar

siesta: Stress tensor (total) (eV/Ang**3):
        -0.014986    0.000099   -0.000015
         0.000099   -0.000267   -0.000067
        -0.000015   -0.000067   -0.000165

siesta: Pressure (total):          8.23451356  kBar

siesta: Temp_ion =   12961.263 K

                     ====================================
                        Begin MD step =      4
                     ====================================

outcell: Unit cell vectors (Ang):
       10.000000    0.000000    0.000000
        0.000000   10.000000    0.000000
        0.000000    0.000000   10.000000

outcell: Cell vector modules (Ang)   :   10.000000   10.000000   10.000000
outcell: Cell angles (23,13,12) (deg):     90.0000     90.0000     90.0000
outcell: Cell volume (Ang**3)        :   1000.0000
Gamma-point calculation with multiply-connected orbital pairs
Gamma-point calculation with multiply-connected orbital pairs
Folding of H and S implicitly performed
Folding of H and S implicitly performed
<dSpData1D:S at geom step 4
  <sparsity:sparsity for geom step 4
    nrows_g=36 nrows=36 sparsity=.9954 nnzs=1290, refcount: 7>
  <dData1D:(new from dSpData1D) n=1290, refcount: 1>
refcount: 1>
new_DM -- step:     4
Re-using DM from previous geometries...
Number of DMs in history: 1
 DM extrapolation coefficients: 
1   1.00000
New DM after history re-use:
<dSpData2D:SpM extrapolated using coords
  <sparsity:sparsity for geom step 4
    nrows_g=36 nrows=36 sparsity=.9954 nnzs=1290, refcount: 9>
  <dData2D:(temp array for extrapolation) n=1290 m=1, refcount: 1>
refcount: 1>
Note: For starting DM, Qtot, Tr[D*S] =         14.00000000         13.94387728
No. of atoms with KB's overlaping orbs in proc 0. Max # of overlaps:       4      35
New grid distribution:   1
           1       1:   45    1:   45    1:   45

InitMesh: MESH =    90 x    90 x    90 =      729000
InitMesh: (bp) =    45 x    45 x    45 =       91125
InitMesh: Mesh cutoff (required, used) =   200.000   223.865 Ry
ExtMesh (bp) on 0 =   117 x   117 x   117 =     1601613
PhiOnMesh: Number of (b)points on node 0 =                91125
PhiOnMesh: nlist on node 0 =               451230

        iscf     Eharris(eV)        E_KS(eV)     FreeEng(eV)     dDmax    Ef(eV) dHmax(eV)
   scf:    1     -899.061320     -899.803604     -899.872850  0.645095 -6.620020  1.261156
   scf:    2     -897.510929     -899.104572     -899.167544  0.789513 -7.170886  3.942597
   scf:    3     -900.003774     -899.836362     -899.905606  0.610434 -6.752627  0.590199
   scf:    4     -899.764491     -899.819528     -899.886771  0.279474 -7.012694  0.367891
   scf:    5     -899.847599     -899.835705     -899.904247  0.085233 -6.933680  0.106287
   scf:    6     -899.844340     -899.843842     -899.913153  0.074987 -6.947053  0.116415
   scf:    7     -899.838246     -899.842019     -899.911131  0.035912 -6.909302  0.106914
   scf:    8     -899.844216     -899.844134     -899.913447  0.039038 -6.914789  0.008330
   scf:    9     -899.844133     -899.844134     -899.913447  0.000538 -6.915295  0.007575
   scf:   10     -899.844130     -899.844133     -899.913447  0.001352 -6.916770  0.001616
   scf:   11     -899.844134     -899.844134     -899.913448  0.000205 -6.916939  0.001283
   scf:   12     -899.844135     -899.844135     -899.913449  0.000968 -6.917200  0.000613
   scf:   13     -899.844135     -899.844135     -899.913449  0.000034 -6.917225  0.000581

SCF Convergence by DM+H criterion
max |DM_out - DM_in|         :     0.0000344160
max |H_out - H_in|      (eV) :     0.0005811815
SCF cycle converged after 13 iterations

Using DM_out to compute the final energy and forces
No. of atoms with KB's overlaping orbs in proc 0. Max # of overlaps:       4      35

siesta: E_KS(eV) =             -899.8441

siesta: Atomic forces (eV/Ang):
----------------------------------------
   Tot   -0.135015   -0.000919    0.000141
----------------------------------------
   Max    2.352919
   Res    0.903437    sqrt( Sum f_i^2 / 3N )
----------------------------------------
   Max    2.352919    constrained

Stress tensor Voigt[x,y,z,yz,xz,xy] (kbar):      -27.66       -0.45       -0.28       -0.12        0.06        0.15
(Free)E + p*V (eV/cell)     -894.0068
Target enthalpy (eV/cell)     -899.9134

siesta: Stress tensor (static) (eV/Ang**3):
        -0.007726   -0.000043    0.000028
        -0.000043   -0.000011   -0.000008
         0.000028   -0.000008   -0.000004

siesta: Pressure (static):          4.13403633  kBar

siesta: Stress tensor (total) (eV/Ang**3):
        -0.017266    0.000091    0.000036
         0.000091   -0.000282   -0.000074
         0.000036   -0.000074   -0.000172

siesta: Pressure (total):          9.46365912  kBar

siesta: Temp_ion =   11855.535 K

                     ====================================
                        Begin MD step =      5
                     ====================================

outcell: Unit cell vectors (Ang):
       10.000000    0.000000    0.000000
        0.000000   10.000000    0.000000
        0.000000    0.000000   10.000000

outcell: Cell vector modules (Ang)   :   10.000000   10.000000   10.000000
outcell: Cell angles (23,13,12) (deg):     90.0000     90.0000     90.0000
outcell: Cell volume (Ang**3)        :   1000.0000
<dSpData1D:S at geom step 5
  <sparsity:sparsity for geom step 5
    nrows_g=36 nrows=36 sparsity=1.0000 nnzs=1296, refcount: 7>
  <dData1D:(new from dSpData1D) n=1296, refcount: 1>
refcount: 1>
new_DM -- step:     5
Re-using DM from previous geometries...
Number of DMs in history: 1
 DM extrapolation coefficients: 
1   1.00000
New DM after history re-use:
<dSpData2D:SpM extrapolated using coords
  <sparsity:sparsity for geom step 5
    nrows_g=36 nrows=36 sparsity=1.0000 nnzs=1296, refcount: 9>
  <dData2D:(temp array for extrapolation) n=1296 m=1, refcount: 1>
refcount: 1>
Note: For starting DM, Qtot, Tr[D*S] =         14.00000000         13.92109424
No. of atoms with KB's overlaping orbs in proc 0. Max # of overlaps:       4      36
New grid distribution:   1
           1       1:   45    1:   45    1:   45

InitMesh: MESH =    90 x    90 x    90 =      729000
InitMesh: (bp) =    45 x    45 x    45 =       91125
InitMesh: Mesh cutoff (required, used) =   200.000   223.865 Ry
ExtMesh (bp) on 0 =   117 x   117 x   117 =     1601613
PhiOnMesh: Number of (b)points on node 0 =                91125
PhiOnMesh: nlist on node 0 =               451205

        iscf     Eharris(eV)        E_KS(eV)     FreeEng(eV)     dDmax    Ef(eV) dHmax(eV)
   scf:    1     -897.553515     -898.973890     -899.042426  0.523474 -6.580518  1.913136
   scf:    2     -893.124515     -897.197139     -897.225765  0.926583 -7.425206  6.361325
   scf:    3     -899.475333     -899.045474     -899.113817  0.710565 -6.787732  0.747366
   scf:    4     -898.960875     -899.008492     -899.074465  0.086655 -6.686174  1.069316
   scf:    5     -898.751245     -898.998892     -899.060980  0.402947 -7.022014  0.249762
   scf:    6     -899.078985     -899.072621     -899.141882  0.217336 -6.969005  0.227330
   scf:    7     -899.072803     -899.072976     -899.142271  0.046361 -7.023511  0.114769
   scf:    8     -899.057837     -899.068013     -899.136697  0.059701 -6.994544  0.063340
   scf:    9     -899.072821     -899.073373     -899.142675  0.064973 -6.992144  0.012288
   scf:   10     -899.073393     -899.073386     -899.142685  0.002316 -6.992429  0.011592
   scf:   11     -899.073361     -899.073379     -899.142684  0.002993 -6.994438  0.008278
   scf:   12     -899.073382     -899.073382     -899.142685  0.001126 -6.994551  0.007106
   scf:   13     -899.073392     -899.073387     -899.142690  0.001051 -6.995890  0.002255
   scf:   14     -899.073389     -899.073388     -899.142690  0.000217 -6.995980  0.002004
   scf:   15     -899.073392     -899.073391     -899.142691  0.001156 -6.996556  0.001034
   scf:   16     -899.073390     -899.073390     -899.142691  0.000031 -6.996579  0.001019
   scf:   17     -899.073389     -899.073390     -899.142691  0.000202 -6.996691  0.000781

SCF Convergence by DM+H criterion
max |DM_out - DM_in|         :     0.0002018965
max |H_out - H_in|      (eV) :     0.0007805171
SCF cycle converged after 17 iterations

Using DM_out to compute the final energy and forces
No. of atoms with KB's overlaping orbs in proc 0. Max # of overlaps:       4      36

siesta: E_KS(eV) =             -899.0734

siesta: Atomic forces (eV/Ang):
----------------------------------------
   Tot    0.017566   -0.001123    0.000504
----------------------------------------
   Max    3.672836
   Res    1.665009    sqrt( Sum f_i^2 / 3N )
----------------------------------------
   Max    3.672836    constrained

Stress tensor Voigt[x,y,z,yz,xz,xy] (kbar):      -34.11       -0.52       -0.30       -0.14        0.31        0.24
(Free)E + p*V (eV/cell)     -891.8750
Target enthalpy (eV/cell)     -899.1427

siesta: Stress tensor (static) (eV/Ang**3):
        -0.012618    0.000041    0.000189
         0.000042   -0.000049   -0.000017
         0.000189   -0.000017   -0.000008

siesta: Pressure (static):          6.76930839  kBar

siesta: Stress tensor (total) (eV/Ang**3):
        -0.021291    0.000149    0.000192
         0.000149   -0.000328   -0.000088
         0.000192   -0.000088   -0.000185

siesta: Pressure (total):         11.64425979  kBar

siesta: Temp_ion =    9881.970 K

                     ====================================
                        Begin MD step =      6
                     ====================================

outcell: Unit cell vectors (Ang):
       10.000000    0.000000    0.000000
        0.000000   10.000000    0.000000
        0.000000    0.000000   10.000000

outcell: Cell vector modules (Ang)   :   10.000000   10.000000   10.000000
outcell: Cell angles (23,13,12) (deg):     90.0000     90.0000     90.0000
outcell: Cell volume (Ang**3)        :   1000.0000
<dSpData1D:S at geom step 6
  <sparsity:sparsity for geom step 6
    nrows_g=36 nrows=36 sparsity=1.0000 nnzs=1296, refcount: 7>
  <dData1D:(new from dSpData1D) n=1296, refcount: 1>
refcount: 1>
new_DM -- step:     6
Re-using DM from previous geometries...
Number of DMs in history: 1
 DM extrapolation coefficients: 
1   1.00000
New DM after history re-use:
<dSpData2D:SpM extrapolated using coords
  <sparsity:sparsity for geom step 6
    nrows_g=36 nrows=36 sparsity=1.0000 nnzs=1296, refcount: 9>
  <dData2D:(temp array for extrapolation) n=1296 m=1, refcount: 1>
refcount: 1>
Note: For starting DM, Qtot, Tr[D*S] =         14.00000000         13.91867387
No. of atoms with KB's overlaping orbs in proc 0. Max # of overlaps:       4      36
New grid distribution:   1
           1       1:   45    1:   45    1:   45

InitMesh: MESH =    90 x    90 x    90 =      729000
InitMesh: (bp) =    45 x    45 x    45 =       91125
InitMesh: Mesh cutoff (required, used) =   200.000   223.865 Ry
ExtMesh (bp) on 0 =   117 x   117 x   117 =     1601613
PhiOnMesh: Number of (b)points on node 0 =                91125
PhiOnMesh: nlist on node 0 =               451232

        iscf     Eharris(eV)        E_KS(eV)     FreeEng(eV)     dDmax    Ef(eV) dHmax(eV)
   scf:    1     -895.880390     -897.795032     -897.858265  0.388362 -6.702274  2.085226
   scf:    2     -876.736439     -891.133438     -891.141446  1.630559 -7.302816 12.819896
   scf:    3     -898.070119     -897.929908     -897.998624  1.596868 -6.805669  0.875125
   scf:    4     -897.908599     -897.922955     -897.990472  0.050427 -6.836898  0.666479
   scf:    5     -897.961224     -897.957585     -898.026650  0.142579 -6.869074  0.516670
   scf:    6     -897.958282     -897.957954     -898.027061  0.004950 -6.872373  0.503979
   scf:    7     -897.956635     -897.962250     -898.031002  0.057075 -7.025763  0.192696
   scf:    8     -897.960685     -897.961773     -898.030732  0.017933 -7.034072  0.263336
   scf:    9     -897.959698     -897.964432     -898.033653  0.052458 -6.975605  0.160684
   scf:   10     -897.965977     -897.965306     -898.034479  0.008661 -6.987679  0.097386
   scf:   11     -897.965865     -897.965741     -898.034840  0.010244 -6.997813  0.026174
   scf:   12     -897.965739     -897.965744     -898.034829  0.001805 -6.998965  0.015071
   scf:   13     -897.965712     -897.965735     -898.034847  0.008743 -6.997274  0.009110
   scf:   14     -897.965692     -897.965721     -898.034831  0.004467 -7.000554  0.015482
   scf:   15     -897.965713     -897.965727     -898.034858  0.002841 -6.999092  0.002097
   scf:   16     -897.965758     -897.965745     -898.034863  0.001883 -6.999596  0.004091
   scf:   17     -897.965742     -897.965743     -898.034863  0.000348 -6.999359  0.001793
   scf:   18     -897.965747     -897.965745     -898.034863  0.000416 -6.999873  0.001210
   scf:   19     -897.965743     -897.965744     -898.034863  0.000714 -7.000161  0.001620
   scf:   20     -897.965743     -897.965744     -898.034864  0.000082 -7.000154  0.001166
   scf:   21     -897.965743     -897.965743     -898.034864  0.000314 -7.000733  0.000314
   scf:   22     -897.965744     -897.965743     -898.034864  0.000026 -7.000734  0.000290

SCF Convergence by DM+H criterion
max |DM_out - DM_in|         :     0.0000262146
max |H_out - H_in|      (eV) :     0.0002902093
SCF cycle converged after 22 iterations

Using DM_out to compute the final energy and forces
No. of atoms with KB's overlaping orbs in proc 0. Max # of overlaps:       4      36

siesta: E_KS(eV) =             -897.9657

siesta: Atomic forces (eV/Ang):
----------------------------------------
   Tot    0.018580   -0.001971    0.000739
----------------------------------------
   Max    5.545912
   Res    2.706194    sqrt( Sum f_i^2 / 3N )
----------------------------------------
   Max    5.545912    constrained

Stress tensor Voigt[x,y,z,yz,xz,xy] (kbar):      -40.81       -0.80       -0.46       -0.28        0.51        0.31
(Free)E + p*V (eV/cell)     -889.2820
Target enthalpy (eV/cell)     -898.0349

siesta: Stress tensor (static) (eV/Ang**3):
        -0.018346    0.000114    0.000295
         0.000115   -0.000202   -0.000094
         0.000295   -0.000094   -0.000102

siesta: Pressure (static):          9.96027863  kBar

siesta: Stress tensor (total) (eV/Ang**3):
        -0.025472    0.000192    0.000316
         0.000192   -0.000501   -0.000174
         0.000316   -0.000174   -0.000285

siesta: Pressure (total):         14.02370762  kBar

siesta: Temp_ion =    7084.481 K

                     ====================================
                        Begin MD step =      7
                     ====================================

outcell: Unit cell vectors (Ang):
       10.000000    0.000000    0.000000
        0.000000   10.000000    0.000000
        0.000000    0.000000   10.000000

outcell: Cell vector modules (Ang)   :   10.000000   10.000000   10.000000
outcell: Cell angles (23,13,12) (deg):     90.0000     90.0000     90.0000
outcell: Cell volume (Ang**3)        :   1000.0000
<dSpData1D:S at geom step 7
  <sparsity:sparsity for geom step 7
    nrows_g=36 nrows=36 sparsity=1.0000 nnzs=1296, refcount: 7>
  <dData1D:(new from dSpData1D) n=1296, refcount: 1>
refcount: 1>
new_DM -- step:     7
Re-using DM from previous geometries...
Number of DMs in history: 1
 DM extrapolation coefficients: 
1   1.00000
New DM after history re-use:
<dSpData2D:SpM extrapolated using coords
  <sparsity:sparsity for geom step 7
    nrows_g=36 nrows=36 sparsity=1.0000 nnzs=1296, refcount: 9>
  <dData2D:(temp array for extrapolation) n=1296 m=1, refcount: 1>
refcount: 1>
Note: For starting DM, Qtot, Tr[D*S] =         14.00000000         13.92701287
No. of atoms with KB's overlaping orbs in proc 0. Max # of overlaps:       4      36
New grid distribution:   1
           1       1:   45    1:   45    1:   45

InitMesh: MESH =    90 x    90 x    90 =      729000
InitMesh: (bp) =    45 x    45 x    45 =       91125
InitMesh: Mesh cutoff (required, used) =   200.000   223.865 Ry
ExtMesh (bp) on 0 =   117 x   117 x   117 =     1601613
PhiOnMesh: Number of (b)points on node 0 =                91125
PhiOnMesh: nlist on node 0 =               451248

        iscf     Eharris(eV)        E_KS(eV)     FreeEng(eV)     dDmax    Ef(eV) dHmax(eV)
   scf:    1     -894.721752     -896.655225     -896.692881  0.521917 -6.730151  1.226007
   scf:    2     -892.619703     -895.755067     -895.755081  1.242517 -6.354690  3.970636
   scf:    3     -896.712985     -896.369081     -896.411414  0.937727 -6.659994  2.374245
   scf:    4     -896.246147     -896.308498     -896.345787  0.025551 -6.654282  2.436125
   scf:    5     -896.022399     -896.168963     -896.194392  0.057128 -6.629849  2.668089
   scf:    6     -897.140482     -896.839377     -896.907281  0.426254 -6.731557  0.813507
   scf:    7     -896.881274     -896.861752     -896.930233  0.036217 -6.735924  0.650664
   scf:    8     -895.556493     -896.364902     -896.405766  0.437983 -6.705910  2.189413
   scf:    9     -894.273456     -896.344443     -896.373356  0.874456 -6.862707  2.761109
   scf:   10     -895.498486     -895.950683     -895.965808  0.168430 -6.889347  3.878882
   scf:   11     -896.841643     -896.442639     -896.477259  0.227702 -6.852830  2.484125
   scf:   12     -896.453483     -896.469922     -896.507067  0.149499 -6.858993  2.523415
   scf:   13     -896.350765     -896.829016     -896.896917  0.585111 -6.835473  0.761074
   scf:   14     -896.915609     -896.909758     -896.977977  0.179220 -6.863611  0.079582
   scf:   15     -896.908450     -896.909208     -896.977677  0.011465 -6.863249  0.070453
   scf:   16     -896.906954     -896.908165     -896.976844  0.009541 -6.864519  0.075414
   scf:   17     -896.911345     -896.910320     -896.978412  0.022061 -6.860128  0.027767
   scf:   18     -896.910488     -896.910415     -896.978433  0.002638 -6.858538  0.033562
   scf:   19     -896.910254     -896.910367     -896.978369  0.008053 -6.858171  0.031290
   scf:   20     -896.910408     -896.910401     -896.978410  0.002988 -6.856695  0.017331
   scf:   21     -896.910549     -896.910495     -896.978460  0.007092 -6.855840  0.008885
   scf:   22     -896.910500     -896.910498     -896.978460  0.000319 -6.855622  0.008716
   scf:   23     -896.910392     -896.910449     -896.978467  0.002534 -6.854024  0.003121
   scf:   24     -896.910438     -896.910444     -896.978468  0.000291 -6.854101  0.002753
   scf:   25     -896.910465     -896.910455     -896.978470  0.001043 -6.854424  0.001314
   scf:   26     -896.910458     -896.910456     -896.978470  0.000039 -6.854434  0.001252
   scf:   27     -896.910469     -896.910463     -896.978470  0.000549 -6.854708  0.000866
   scf:   28     -896.910462     -896.910462     -896.978470  0.000057 -6.854692  0.000948

SCF Convergence by DM+H criterion
max |DM_out - DM_in|         :     0.0000571943
max |H_out - H_in|      (eV) :     0.0009483503
SCF cycle converged after 28 iterations

Using DM_out to compute the final energy and forces
No. of atoms with KB's overlaping orbs in proc 0. Max # of overlaps:       4      36

siesta: E_KS(eV) =             -896.9105

siesta: Atomic forces (eV/Ang):
----------------------------------------
   Tot    0.035056   -0.001614   -0.000012
----------------------------------------
   Max    6.497470
   Res    3.670294    sqrt( Sum f_i^2 / 3N )
----------------------------------------
   Max    6.497470    constrained

Stress tensor Voigt[x,y,z,yz,xz,xy] (kbar):      -44.14       -1.45       -0.96       -0.66        0.49        0.28
(Free)E + p*V (eV/cell)     -887.2925
Target enthalpy (eV/cell)     -896.9785

siesta: Stress tensor (static) (eV/Ang**3):
        -0.022674    0.000154    0.000253
         0.000154   -0.000544   -0.000302
         0.000252   -0.000302   -0.000386

siesta: Pressure (static):         12.60565656  kBar

siesta: Stress tensor (total) (eV/Ang**3):
        -0.027552    0.000177    0.000308
         0.000177   -0.000908   -0.000411
         0.000308   -0.000411   -0.000598

siesta: Pressure (total):         15.51876849  kBar

siesta: Temp_ion =    4468.728 K

                     ====================================
                        Begin MD step =      8
                     ====================================

outcell: Unit cell vectors (Ang):
       10.000000    0.000000    0.000000
        0.000000   10.000000    0.000000
        0.000000    0.000000   10.000000

outcell: Cell vector modules (Ang)   :   10.000000   10.000000   10.000000
outcell: Cell angles (23,13,12) (deg):     90.0000     90.0000     90.0000
outcell: Cell volume (Ang**3)        :   1000.0000
<dSpData1D:S at geom step 8
  <sparsity:sparsity for geom step 8
    nrows_g=36 nrows=36 sparsity=1.0000 nnzs=1296, refcount: 7>
  <dData1D:(new from dSpData1D) n=1296, refcount: 1>
refcount: 1>
new_DM -- step:     8
Re-using DM from previous geometries...
Number of DMs in history: 1
 DM extrapolation coefficients: 
1   1.00000
New DM after history re-use:
<dSpData2D:SpM extrapolated using coords
  <sparsity:sparsity for geom step 8
    nrows_g=36 nrows=36 sparsity=1.0000 nnzs=1296, refcount: 9>
  <dData2D:(temp array for extrapolation) n=1296 m=1, refcount: 1>
refcount: 1>
Note: For starting DM, Qtot, Tr[D*S] =         14.00000000         13.94051899
No. of atoms with KB's overlaping orbs in proc 0. Max # of overlaps:       4      36
New grid distribution:   1
           1       1:   45    1:   45    1:   45

InitMesh: MESH =    90 x    90 x    90 =      729000
InitMesh: (bp) =    45 x    45 x    45 =       91125
InitMesh: Mesh cutoff (required, used) =   200.000   223.865 Ry
ExtMesh (bp) on 0 =   117 x   117 x   117 =     1601613
PhiOnMesh: Number of (b)points on node 0 =                91125
PhiOnMesh: nlist on node 0 =               451238

        iscf     Eharris(eV)        E_KS(eV)     FreeEng(eV)     dDmax    Ef(eV) dHmax(eV)
   scf:    1     -895.129284     -896.332073     -896.353376  0.461730 -6.512754  1.072794
   scf:    2     -890.199662     -894.721556     -894.721568  0.963288 -6.306544  5.302802
   scf:    3     -896.992183     -896.437076     -896.504598  0.729089 -6.495322  1.703563
   scf:    4     -895.647675     -896.116306     -896.180573  0.224098 -6.482870  2.727267
   scf:    5     -896.579134     -896.457583     -896.522374  0.282823 -6.492283  1.553395
   scf:    6     -894.310274     -895.715840     -895.745235  0.613823 -6.573712  2.346264
   scf:    7     -895.562740     -896.245839     -896.305486  0.544638 -6.634034  2.340910
   scf:    8     -895.884800     -896.087052     -896.140124  0.152491 -6.633471  3.052061
   scf:    9     -895.859759     -896.337940     -896.402280  0.510827 -6.605623  0.773058
   scf:   10     -895.847825     -896.220340     -896.279103  0.224382 -6.654012  1.898379
   scf:   11     -896.489478     -896.506459     -896.567001  0.376907 -6.608771  0.696372
   scf:   12     -895.913760     -896.352292     -896.418138  0.322424 -6.673279  0.654597
   scf:   13     -896.573235     -896.514431     -896.582615  0.201353 -6.691672  0.330554
   scf:   14     -896.541864     -896.530818     -896.597608  0.062398 -6.679101  0.228093
   scf:   15     -896.541541     -896.538905     -896.603417  0.052544 -6.658020  0.054546
   scf:   16     -896.537786     -896.538472     -896.603504  0.009073 -6.658440  0.028440
   scf:   17     -896.538857     -896.538669     -896.603604  0.002549 -6.659015  0.025561
   scf:   18     -896.540238     -896.539596     -896.604115  0.014074 -6.664009  0.022871
   scf:   19     -896.539616     -896.539614     -896.604189  0.002585 -6.663313  0.019046
   scf:   20     -896.538866     -896.539280     -896.604190  0.007861 -6.659357  0.027061
   scf:   21     -896.539682     -896.539497     -896.604225  0.002924 -6.660297  0.010460
   scf:   22     -896.539690     -896.539602     -896.604269  0.003226 -6.658761  0.009426
   scf:   23     -896.539655     -896.539631     -896.604278  0.002126 -6.659329  0.007266
   scf:   24     -896.539616     -896.539624     -896.604282  0.000420 -6.659482  0.005474
   scf:   25     -896.539434     -896.539533     -896.604295  0.002539 -6.659586  0.001501
   scf:   26     -896.539529     -896.539531     -896.604295  0.000078 -6.659591  0.001448
   scf:   27     -896.539521     -896.539526     -896.604296  0.000670 -6.659609  0.000768
   scf:   28     -896.539474     -896.539500     -896.604296  0.000500 -6.659346  0.000505
   scf:   29     -896.539497     -896.539498     -896.604296  0.000238 -6.659378  0.000422

SCF Convergence by DM+H criterion
max |DM_out - DM_in|         :     0.0002381036
max |H_out - H_in|      (eV) :     0.0004215360
SCF cycle converged after 29 iterations

Using DM_out to compute the final energy and forces
No. of atoms with KB's overlaping orbs in proc 0. Max # of overlaps:       4      36

siesta: E_KS(eV) =             -896.5395

siesta: Atomic forces (eV/Ang):
----------------------------------------
   Tot   -0.046329   -0.001216   -0.001114
----------------------------------------
   Max    6.748077
   Res    3.920953    sqrt( Sum f_i^2 / 3N )
----------------------------------------
   Max    6.748077    constrained

Stress tensor Voigt[x,y,z,yz,xz,xy] (kbar):      -40.47       -2.44       -1.61       -1.15        0.64        0.40
(Free)E + p*V (eV/cell)     -887.3437
Target enthalpy (eV/cell)     -896.6043

siesta: Stress tensor (static) (eV/Ang**3):
        -0.022701    0.000247    0.000264
         0.000247   -0.000961   -0.000509
         0.000264   -0.000509   -0.000680

siesta: Pressure (static):         12.99981025  kBar

siesta: Stress tensor (total) (eV/Ang**3):
        -0.025258    0.000249    0.000398
         0.000249   -0.001521   -0.000721
         0.000398   -0.000721   -0.001003

siesta: Pressure (total):         14.83733436  kBar

siesta: Temp_ion =    3524.982 K

                     ====================================
                        Begin MD step =      9
                     ====================================

outcell: Unit cell vectors (Ang):
       10.000000    0.000000    0.000000
        0.000000   10.000000    0.000000
        0.000000    0.000000   10.000000

outcell: Cell vector modules (Ang)   :   10.000000   10.000000   10.000000
outcell: Cell angles (23,13,12) (deg):     90.0000     90.0000     90.0000
outcell: Cell volume (Ang**3)        :   1000.0000
<dSpData1D:S at geom step 9
  <sparsity:sparsity for geom step 9
    nrows_g=36 nrows=36 sparsity=1.0000 nnzs=1296, refcount: 7>
  <dData1D:(new from dSpData1D) n=1296, refcount: 1>
refcount: 1>
new_DM -- step:     9
Re-using DM from previous geometries...
Number of DMs in history: 1
 DM extrapolation coefficients: 
1   1.00000
New DM after history re-use:
<dSpData2D:SpM extrapolated using coords
  <sparsity:sparsity for geom step 9
    nrows_g=36 nrows=36 sparsity=1.0000 nnzs=1296, refcount: 9>
  <dData2D:(temp array for extrapolation) n=1296 m=1, refcount: 1>
refcount: 1>
Note: For starting DM, Qtot, Tr[D*S] =         14.00000000         13.95297197
No. of atoms with KB's overlaping orbs in proc 0. Max # of overlaps:       4      36
New grid distribution:   1
           1       1:   45    1:   45    1:   45

InitMesh: MESH =    90 x    90 x    90 =      729000
InitMesh: (bp) =    45 x    45 x    45 =       91125
InitMesh: Mesh cutoff (required, used) =   200.000   223.865 Ry
ExtMesh (bp) on 0 =   117 x   117 x   117 =     1601613
PhiOnMesh: Number of (b)points on node 0 =                91125
PhiOnMesh: nlist on node 0 =               451204

        iscf     Eharris(eV)        E_KS(eV)     FreeEng(eV)     dDmax    Ef(eV) dHmax(eV)
   scf:    1     -896.006854     -896.647868     -896.666842  0.645596 -6.200111  2.038810
   scf:    2     -859.504406     -884.901540     -884.901541  3.508685 -7.060653 15.087994
   scf:    3     -898.537897     -896.891591     -896.930203  3.286539 -6.349495  0.929590
   scf:    4     -896.924638     -896.929973     -896.971170  0.080382 -6.322715  0.778320
   scf:    5     -896.313173     -896.770341     -896.826948  0.362698 -6.432491  1.261640
   scf:    6     -896.924686     -896.853318     -896.911821  0.068541 -6.415908  0.986474
   scf:    7     -896.928140     -896.892999     -896.953256  0.039137 -6.415054  0.785610
   scf:    8     -896.949201     -896.960364     -897.019430  0.184987 -6.446512  0.181723
   scf:    9     -896.863108     -896.928097     -896.990901  0.102407 -6.444330  0.734110
   scf:   10     -896.950992     -896.964693     -897.021457  0.158339 -6.460503  0.136267
   scf:   11     -896.966065     -896.965623     -897.023212  0.016415 -6.463982  0.066005
   scf:   12     -896.963035     -896.964959     -897.023908  0.028177 -6.469044  0.045244
   scf:   13     -896.964830     -896.965015     -897.024080  0.008076 -6.468150  0.015275
   scf:   14     -896.963206     -896.964210     -897.023952  0.010640 -6.467996  0.033791
   scf:   15     -896.965312     -896.964815     -897.024087  0.007816 -6.467997  0.007234
   scf:   16     -896.964670     -896.964744     -897.024083  0.001811 -6.468253  0.007284
   scf:   17     -896.965274     -896.965018     -897.024095  0.007390 -6.468407  0.005996
   scf:   18     -896.964906     -896.964963     -897.024097  0.000880 -6.468301  0.002628
   scf:   19     -896.964977     -896.964970     -897.024098  0.000743 -6.467779  0.000835
   scf:   20     -896.964978     -896.964974     -897.024098  0.000064 -6.467784  0.000577

SCF Convergence by DM+H criterion
max |DM_out - DM_in|         :     0.0000641475
max |H_out - H_in|      (eV) :     0.0005768588
SCF cycle converged after 20 iterations

Using DM_out to compute the final energy and forces
No. of atoms with KB's overlaping orbs in proc 0. Max # of overlaps:       4      36

siesta: E_KS(eV) =             -896.9650

siesta: Atomic forces (eV/Ang):
----------------------------------------
   Tot   -0.047807    0.000130   -0.000440
----------------------------------------
   Max    6.685692
   Res    3.383521    sqrt( Sum f_i^2 / 3N )
----------------------------------------
   Max    6.685692    constrained

Stress tensor Voigt[x,y,z,yz,xz,xy] (kbar):      -32.41       -3.33       -1.63       -1.19        1.24        0.84
(Free)E + p*V (eV/cell)     -889.2491
Target enthalpy (eV/cell)     -897.0241

siesta: Stress tensor (static) (eV/Ang**3):
        -0.019092    0.000347    0.000463
         0.000347   -0.001077   -0.000302
         0.000463   -0.000302   -0.000442

siesta: Pressure (static):         11.00767075  kBar

siesta: Stress tensor (total) (eV/Ang**3):
        -0.020231    0.000523    0.000773
         0.000523   -0.002076   -0.000744
         0.000773   -0.000744   -0.001018

siesta: Pressure (total):         12.45713033  kBar

siesta: Temp_ion =    4481.809 K

                     ====================================
                        Begin MD step =     10
                     ====================================

outcell: Unit cell vectors (Ang):
       10.000000    0.000000    0.000000
        0.000000   10.000000    0.000000
        0.000000    0.000000   10.000000

outcell: Cell vector modules (Ang)   :   10.000000   10.000000   10.000000
outcell: Cell angles (23,13,12) (deg):     90.0000     90.0000     90.0000
outcell: Cell volume (Ang**3)        :   1000.0000
<dSpData1D:S at geom step 10
  <sparsity:sparsity for geom step 10
    nrows_g=36 nrows=36 sparsity=1.0000 nnzs=1296, refcount: 7>
  <dData1D:(new from dSpData1D) n=1296, refcount: 1>
refcount: 1>
new_DM -- step:    10
Re-using DM from previous geometries...
Number of DMs in history: 1
 DM extrapolation coefficients: 
1   1.00000
New DM after history re-use:
<dSpData2D:SpM extrapolated using coords
  <sparsity:sparsity for geom step 10
    nrows_g=36 nrows=36 sparsity=1.0000 nnzs=1296, refcount: 9>
  <dData2D:(temp array for extrapolation) n=1296 m=1, refcount: 1>
refcount: 1>
Note: For starting DM, Qtot, Tr[D*S] =         14.00000000         13.96728906
No. of atoms with KB's overlaping orbs in proc 0. Max # of overlaps:       4      36
New grid distribution:   1
           1       1:   45    1:   45    1:   45

InitMesh: MESH =    90 x    90 x    90 =      729000
InitMesh: (bp) =    45 x    45 x    45 =       91125
InitMesh: Mesh cutoff (required, used) =   200.000   223.865 Ry
ExtMesh (bp) on 0 =   117 x   117 x   117 =     1601613
PhiOnMesh: Number of (b)points on node 0 =                91125
PhiOnMesh: nlist on node 0 =               451172

        iscf     Eharris(eV)        E_KS(eV)     FreeEng(eV)     dDmax    Ef(eV) dHmax(eV)
   scf:    1     -896.572252     -897.063197     -897.087628  1.164754 -5.985915  2.815177
   scf:    2     -852.057916     -883.035468     -883.035468  3.930296 -7.387914 17.133059
   scf:    3     -900.164113     -897.374135     -897.403181  3.468887 -6.240559  1.426471
   scf:    4     -897.553799     -897.498910     -897.536093  0.119265 -6.192318  0.813660
   scf:    5     -896.995698     -897.325628     -897.367651  0.233919 -6.320225  1.748174
   scf:    6     -897.604205     -897.534778     -897.590972  0.153692 -6.278907  0.355578
   scf:    7     -897.527014     -897.536132     -897.595454  0.060732 -6.272996  0.404664
   scf:    8     -897.510471     -897.529679     -897.588839  0.065884 -6.288015  0.617580
   scf:    9     -897.473490     -897.506311     -897.563001  0.057517 -6.289028  0.824777
   scf:   10     -897.570040     -897.544275     -897.597778  0.088530 -6.294687  0.428197
   scf:   11     -897.556699     -897.558206     -897.609916  0.069248 -6.306155  0.046467
   scf:   12     -897.558303     -897.558290     -897.610044  0.005402 -6.308064  0.054998
   scf:   13     -897.555237     -897.556985     -897.610453  0.016993 -6.309722  0.011242
   scf:   14     -897.557193     -897.557090     -897.610458  0.000861 -6.309440  0.010421
   scf:   15     -897.556916     -897.557004     -897.610455  0.001716 -6.308893  0.007063
   scf:   16     -897.557144     -897.557075     -897.610456  0.001526 -6.308792  0.005835
   scf:   17     -897.557176     -897.557125     -897.610457  0.001333 -6.308828  0.006886
   scf:   18     -897.557436     -897.557282     -897.610456  0.001472 -6.308523  0.004736
   scf:   19     -897.557272     -897.557277     -897.610457  0.000133 -6.308507  0.004815
   scf:   20     -897.557035     -897.557159     -897.610467  0.003268 -6.309359  0.000972
   scf:   21     -897.557181     -897.557170     -897.610467  0.000202 -6.309435  0.000421

SCF Convergence by DM+H criterion
max |DM_out - DM_in|         :     0.0002020107
max |H_out - H_in|      (eV) :     0.0004207993
SCF cycle converged after 21 iterations

Using DM_out to compute the final energy and forces
No. of atoms with KB's overlaping orbs in proc 0. Max # of overlaps:       4      36

siesta: E_KS(eV) =             -897.5572

siesta: Atomic forces (eV/Ang):
----------------------------------------
   Tot   -0.033275    0.003077    0.001261
----------------------------------------
   Max    5.901423
   Res    2.732925    sqrt( Sum f_i^2 / 3N )
----------------------------------------
   Max    5.901423    constrained

Stress tensor Voigt[x,y,z,yz,xz,xy] (kbar):      -24.66       -3.72       -0.75       -0.45        1.74        1.40
(Free)E + p*V (eV/cell)     -891.5506
Target enthalpy (eV/cell)     -897.6105

siesta: Stress tensor (static) (eV/Ang**3):
        -0.014428    0.000295    0.000545
         0.000295   -0.000687    0.000417
         0.000546    0.000417    0.000386

siesta: Pressure (static):          7.86614299  kBar

siesta: Stress tensor (total) (eV/Ang**3):
        -0.015390    0.000873    0.001088
         0.000873   -0.002319   -0.000279
         0.001088   -0.000279   -0.000470

siesta: Pressure (total):          9.70904597  kBar

siesta: Temp_ion =    5931.092 K

                     ====================================
                        Begin MD step =     11
                     ====================================

outcell: Unit cell vectors (Ang):
       10.000000    0.000000    0.000000
        0.000000   10.000000    0.000000
        0.000000    0.000000   10.000000

outcell: Cell vector modules (Ang)   :   10.000000   10.000000   10.000000
outcell: Cell angles (23,13,12) (deg):     90.0000     90.0000     90.0000
outcell: Cell volume (Ang**3)        :   1000.0000
<dSpData1D:S at geom step 11
  <sparsity:sparsity for geom step 11
    nrows_g=36 nrows=36 sparsity=1.0000 nnzs=1296, refcount: 7>
  <dData1D:(new from dSpData1D) n=1296, refcount: 1>
refcount: 1>
new_DM -- step:    11
Re-using DM from previous geometries...
Number of DMs in history: 1
 DM extrapolation coefficients: 
1   1.00000
New DM after history re-use:
<dSpData2D:SpM extrapolated using coords
  <sparsity:sparsity for geom step 11
    nrows_g=36 nrows=36 sparsity=1.0000 nnzs=1296, refcount: 9>
  <dData2D:(temp array for extrapolation) n=1296 m=1, refcount: 1>
refcount: 1>
Note: For starting DM, Qtot, Tr[D*S] =         14.00000000         13.97928236
No. of atoms with KB's overlaping orbs in proc 0. Max # of overlaps:       4      36
New grid distribution:   1
           1       1:   45    1:   45    1:   45

InitMesh: MESH =    90 x    90 x    90 =      729000
InitMesh: (bp) =    45 x    45 x    45 =       91125
InitMesh: Mesh cutoff (required, used) =   200.000   223.865 Ry
ExtMesh (bp) on 0 =   117 x   117 x   117 =     1601613
PhiOnMesh: Number of (b)points on node 0 =                91125
PhiOnMesh: nlist on node 0 =               451088

        iscf     Eharris(eV)        E_KS(eV)     FreeEng(eV)     dDmax    Ef(eV) dHmax(eV)
   scf:    1     -897.589895     -897.592365     -897.637097  1.296356 -5.932259  2.220154
   scf:    2     -859.002157     -885.421434     -885.421434  3.303885 -7.152756 16.234910
   scf:    3     -899.469737     -897.822942     -897.859082  2.842587 -6.143393  0.698068
   scf:    4     -897.866052     -897.845638     -897.884332  0.027238 -6.138891  0.591837
   scf:    5     -897.903224     -897.918272     -897.968672  0.178267 -6.222041  0.114731
   scf:    6     -897.920294     -897.920085     -897.969818  0.023395 -6.218866  0.106358
   scf:    7     -897.794643     -897.877912     -897.930418  0.120655 -6.207190  0.690190
   scf:    8     -897.932976     -897.917294     -897.969216  0.085565 -6.211066  0.153838
   scf:    9     -897.920816     -897.919915     -897.970995  0.023502 -6.212542  0.029770
   scf:   10     -897.922111     -897.921104     -897.971049  0.008704 -6.212821  0.035838
   scf:   11     -897.922208     -897.921697     -897.970851  0.006207 -6.211877  0.054512
   scf:   12     -897.919072     -897.920530     -897.971080  0.012968 -6.213441  0.027953
   scf:   13     -897.921411     -897.920992     -897.971116  0.005503 -6.211664  0.007158
   scf:   14     -897.921046     -897.921019     -897.971113  0.000541 -6.211342  0.007512
   scf:   15     -897.920961     -897.920990     -897.971117  0.000578 -6.211502  0.006005
   scf:   16     -897.920977     -897.920984     -897.971119  0.000475 -6.211749  0.004720
   scf:   17     -897.920851     -897.920920     -897.971122  0.001505 -6.212491  0.003154
   scf:   18     -897.920730     -897.920825     -897.971125  0.000857 -6.212691  0.002547
   scf:   19     -897.920652     -897.920739     -897.971127  0.001201 -6.212659  0.001764
   scf:   20     -897.920760     -897.920750     -897.971127  0.000168 -6.212609  0.001832
   scf:   21     -897.920760     -897.920755     -897.971127  0.000077 -6.212591  0.001627
   scf:   22     -897.920755     -897.920755     -897.971127  0.000030 -6.212612  0.001311
   scf:   23     -897.920764     -897.920759     -897.971127  0.000060 -6.212649  0.001190
   scf:   24     -897.920761     -897.920760     -897.971127  0.000130 -6.212738  0.001146
   scf:   25     -897.920745     -897.920753     -897.971127  0.000068 -6.212760  0.001099
   scf:   26     -897.920748     -897.920750     -897.971127  0.000042 -6.212756  0.001081
   scf:   27     -897.920782     -897.920766     -897.971127  0.000212 -6.212715  0.000848

SCF Convergence by DM+H criterion
max |DM_out - DM_in|         :     0.0002124824
max |H_out - H_in|      (eV) :     0.0008478920
SCF cycle converged after 27 iterations

Using DM_out to compute the final energy and forces
No. of atoms with KB's overlaping orbs in proc 0. Max # of overlaps:       4      36

siesta: E_KS(eV) =             -897.9208

siesta: Atomic forces (eV/Ang):
----------------------------------------
   Tot   -0.014572    0.000445   -0.000888
----------------------------------------
   Max    4.619073
   Res    2.278397    sqrt( Sum f_i^2 / 3N )
----------------------------------------
   Max    4.619073    constrained

Stress tensor Voigt[x,y,z,yz,xz,xy] (kbar):      -18.97       -3.68        0.65        0.79        1.98        1.96
(Free)E + p*V (eV/cell)     -893.3956
Target enthalpy (eV/cell)     -897.9711

siesta: Stress tensor (static) (eV/Ang**3):
        -0.010360    0.000226    0.000541
         0.000226   -0.000098    0.001215
         0.000540    0.001215    0.001297

siesta: Pressure (static):          4.89202954  kBar

siesta: Stress tensor (total) (eV/Ang**3):
        -0.011840    0.001221    0.001237
         0.001221   -0.002295    0.000492
         0.001237    0.000492    0.000408

siesta: Pressure (total):          7.33087228  kBar

siesta: Temp_ion =    6883.707 K

                     ====================================
                        Begin MD step =     12
                     ====================================

outcell: Unit cell vectors (Ang):
       10.000000    0.000000    0.000000
        0.000000   10.000000    0.000000
        0.000000    0.000000   10.000000

outcell: Cell vector modules (Ang)   :   10.000000   10.000000   10.000000
outcell: Cell angles (23,13,12) (deg):     90.0000     90.0000     90.0000
outcell: Cell volume (Ang**3)        :   1000.0000
<dSpData1D:S at geom step 12
  <sparsity:sparsity for geom step 12
    nrows_g=36 nrows=36 sparsity=1.0000 nnzs=1296, refcount: 7>
  <dData1D:(new from dSpData1D) n=1296, refcount: 1>
refcount: 1>
new_DM -- step:    12
Re-using DM from previous geometries...
Number of DMs in history: 1
 DM extrapolation coefficients: 
1   1.00000
New DM after history re-use:
<dSpData2D:SpM extrapolated using coords
  <sparsity:sparsity for geom step 12
    nrows_g=36 nrows=36 sparsity=1.0000 nnzs=1296, refcount: 9>
  <dData2D:(temp array for extrapolation) n=1296 m=1, refcount: 1>
refcount: 1>
Note: For starting DM, Qtot, Tr[D*S] =         14.00000000         13.98326316
No. of atoms with KB's overlaping orbs in proc 0. Max # of overlaps:       4      36
New grid distribution:   1
           1       1:   45    1:   45    1:   45

InitMesh: MESH =    90 x    90 x    90 =      729000
InitMesh: (bp) =    45 x    45 x    45 =       91125
InitMesh: Mesh cutoff (required, used) =   200.000   223.865 Ry
ExtMesh (bp) on 0 =   117 x   117 x   117 =     1601613
PhiOnMesh: Number of (b)points on node 0 =                91125
PhiOnMesh: nlist on node 0 =               451166

        iscf     Eharris(eV)        E_KS(eV)     FreeEng(eV)     dDmax    Ef(eV) dHmax(eV)
   scf:    1     -898.009350     -897.884491     -897.950688  0.604487 -5.968012  2.028718
   scf:    2     -875.880744     -891.004315     -891.004315  2.470580 -6.909908 13.588146
   scf:    3     -898.822823     -898.082165     -898.119081  2.099745 -6.117614  1.027991
   scf:    4     -898.079555     -898.080865     -898.117714  0.002944 -6.115515  1.046817
   scf:    5     -898.111160     -898.121616     -898.171971  0.180567 -6.200096  0.129027
   scf:    6     -898.115091     -898.118635     -898.170046  0.017369 -6.194783  0.215168
   scf:    7     -898.044047     -898.097399     -898.153919  0.160089 -6.214489  0.373610
   scf:    8     -898.096433     -898.118254     -898.161192  0.181149 -6.222338  0.462616
   scf:    9     -898.048047     -898.104728     -898.163360  0.155798 -6.173698  0.353123
   scf:   10     -898.126175     -898.118452     -898.172883  0.061407 -6.187714  0.077662
   scf:   11     -898.126102     -898.123572     -898.174734  0.043383 -6.177672  0.044104
   scf:   12     -898.123071     -898.123411     -898.174887  0.010746 -6.181150  0.013737
   scf:   13     -898.123371     -898.123391     -898.174890  0.000643 -6.181250  0.014459
   scf:   14     -898.123022     -898.123209     -898.174893  0.002404 -6.181838  0.014572
   scf:   15     -898.123522     -898.123369     -898.174899  0.002273 -6.182750  0.012645
   scf:   16     -898.123344     -898.123358     -898.174896  0.001495 -6.183253  0.007387
   scf:   17     -898.123315     -898.123337     -898.174898  0.000386 -6.183239  0.005759
   scf:   18     -898.123135     -898.123238     -898.174902  0.002117 -6.183227  0.003169
   scf:   19     -898.123231     -898.123234     -898.174902  0.000197 -6.183263  0.002707
   scf:   20     -898.123438     -898.123337     -898.174905  0.001012 -6.183028  0.000969
   scf:   21     -898.123338     -898.123337     -898.174905  0.000090 -6.183000  0.000667

SCF Convergence by DM+H criterion
max |DM_out - DM_in|         :     0.0000896327
max |H_out - H_in|      (eV) :     0.0006666786
SCF cycle converged after 21 iterations

Using DM_out to compute the final energy and forces
No. of atoms with KB's overlaping orbs in proc 0. Max # of overlaps:       4      36

siesta: E_KS(eV) =             -898.1233

siesta: Atomic forces (eV/Ang):
----------------------------------------
   Tot   -0.039466   -0.002543   -0.006165
----------------------------------------
   Max    3.124679
   Res    1.929096    sqrt( Sum f_i^2 / 3N )
----------------------------------------
   Max    3.124679    constrained

Stress tensor Voigt[x,y,z,yz,xz,xy] (kbar):      -14.63       -3.40        2.27        2.15        1.85        2.40
(Free)E + p*V (eV/cell)     -894.8950
Target enthalpy (eV/cell)     -898.1749

siesta: Stress tensor (static) (eV/Ang**3):
        -0.007013    0.000260    0.000468
         0.000260    0.000423    0.001813
         0.000468    0.001813    0.002050

siesta: Pressure (static):          2.42453685  kBar

siesta: Stress tensor (total) (eV/Ang**3):
        -0.009131    0.001501    0.001153
         0.001501   -0.002124    0.001344
         0.001153    0.001344    0.001415

siesta: Pressure (total):          5.25509125  kBar

siesta: Temp_ion =    7437.630 K

                     ====================================
                        Begin MD step =     13
                     ====================================

outcell: Unit cell vectors (Ang):
       10.000000    0.000000    0.000000
        0.000000   10.000000    0.000000
        0.000000    0.000000   10.000000

outcell: Cell vector modules (Ang)   :   10.000000   10.000000   10.000000
outcell: Cell angles (23,13,12) (deg):     90.0000     90.0000     90.0000
outcell: Cell volume (Ang**3)        :   1000.0000
<dSpData1D:S at geom step 13
  <sparsity:sparsity for geom step 13
    nrows_g=36 nrows=36 sparsity=1.0000 nnzs=1296, refcount: 7>
  <dData1D:(new from dSpData1D) n=1296, refcount: 1>
refcount: 1>
new_DM -- step:    13
Re-using DM from previous geometries...
Number of DMs in history: 1
 DM extrapolation coefficients: 
1   1.00000
New DM after history re-use:
<dSpData2D:SpM extrapolated using coords
  <sparsity:sparsity for geom step 13
    nrows_g=36 nrows=36 sparsity=1.0000 nnzs=1296, refcount: 9>
  <dData2D:(temp array for extrapolation) n=1296 m=1, refcount: 1>
refcount: 1>
No. of atoms with KB's overlaping orbs in proc 0. Max # of overlaps:       4      36
New grid distribution:   1
           1       1:   45    1:   45    1:   45

InitMesh: MESH =    90 x    90 x    90 =      729000
InitMesh: (bp) =    45 x    45 x    45 =       91125
InitMesh: Mesh cutoff (required, used) =   200.000   223.865 Ry
ExtMesh (bp) on 0 =   117 x   117 x   117 =     1601613
PhiOnMesh: Number of (b)points on node 0 =                91125
PhiOnMesh: nlist on node 0 =               451207

[...]
         0.001158    0.000890    0.001011

siesta: Pressure (static):         -4.38128441  kBar

siesta: Stress tensor (total) (eV/Ang**3):
         0.000853    0.000735    0.001542
         0.000735   -0.001970    0.000984
         0.001542    0.000984    0.000965

siesta: Pressure (total):          0.08132223  kBar

siesta: Temp_ion =   12011.068 K

                     ====================================
                        Begin MD step =     98
                     ====================================

outcell: Unit cell vectors (Ang):
       10.000000    0.000000    0.000000
        0.000000   10.000000    0.000000
        0.000000    0.000000   10.000000

outcell: Cell vector modules (Ang)   :   10.000000   10.000000   10.000000
outcell: Cell angles (23,13,12) (deg):     90.0000     90.0000     90.0000
outcell: Cell volume (Ang**3)        :   1000.0000
<dSpData1D:S at geom step 98
  <sparsity:sparsity for geom step 98
    nrows_g=36 nrows=36 sparsity=.9907 nnzs=1284, refcount: 7>
  <dData1D:(new from dSpData1D) n=1284, refcount: 1>
refcount: 1>
new_DM -- step:    98
Re-using DM from previous geometries...
Number of DMs in history: 1
 DM extrapolation coefficients: 
1   1.00000
New DM after history re-use:
<dSpData2D:SpM extrapolated using coords
  <sparsity:sparsity for geom step 98
    nrows_g=36 nrows=36 sparsity=.9907 nnzs=1284, refcount: 9>
  <dData2D:(temp array for extrapolation) n=1284 m=1, refcount: 1>
refcount: 1>
Note: For starting DM, Qtot, Tr[D*S] =         14.00000000         14.11240021
No. of atoms with KB's overlaping orbs in proc 0. Max # of overlaps:       4      34
New grid distribution:   1
           1       1:   45    1:   45    1:   45

InitMesh: MESH =    90 x    90 x    90 =      729000
InitMesh: (bp) =    45 x    45 x    45 =       91125
InitMesh: Mesh cutoff (required, used) =   200.000   223.865 Ry
ExtMesh (bp) on 0 =   117 x   117 x   117 =     1601613
PhiOnMesh: Number of (b)points on node 0 =                91125
PhiOnMesh: nlist on node 0 =               451220

        iscf     Eharris(eV)        E_KS(eV)     FreeEng(eV)     dDmax    Ef(eV) dHmax(eV)
   scf:    1     -900.201359     -899.972575     -900.034973  0.463394 -8.140708  2.831595
   scf:    2     -892.196782     -897.686986     -897.687872  1.072992 -6.252875  8.039094
   scf:    3     -900.838374     -899.834171     -899.882289  0.809205 -7.650990  1.930024
   scf:    4     -900.063206     -900.143080     -900.211868  0.337425 -7.871270  1.367917
   scf:    5     -900.150948     -900.160926     -900.226517  0.223043 -7.466228  0.504753
   scf:    6     -900.155713     -900.159147     -900.224287  0.083938 -7.315726  0.212865
   scf:    7     -900.171191     -900.182598     -900.251832  0.132515 -7.320737  0.090399
   scf:    8     -900.178447     -900.180773     -900.250075  0.016127 -7.325287  0.112584
   scf:    9     -900.184281     -900.183063     -900.252239  0.023065 -7.311290  0.099222
   scf:   10     -900.179587     -900.182795     -900.251349  0.041166 -7.338002  0.065095
   scf:   11     -900.182691     -900.183691     -900.252743  0.029972 -7.329020  0.013145
   scf:   12     -900.182702     -900.183592     -900.252362  0.016890 -7.321777  0.037663
   scf:   13     -900.183701     -900.183904     -900.252941  0.017998 -7.324236  0.004234
   scf:   14     -900.183896     -900.183900     -900.252941  0.000389 -7.324492  0.003951
   scf:   15     -900.183901     -900.183900     -900.252941  0.000116 -7.324412  0.003437
   scf:   16     -900.183905     -900.183903     -900.252943  0.003708 -7.324258  0.001487
   scf:   17     -900.183903     -900.183903     -900.252943  0.000183 -7.324378  0.001464
   scf:   18     -900.183903     -900.183903     -900.252943  0.000217 -7.324449  0.001268
   scf:   19     -900.183902     -900.183903     -900.252943  0.000168 -7.324326  0.000783

SCF Convergence by DM+H criterion
max |DM_out - DM_in|         :     0.0001675421
max |H_out - H_in|      (eV) :     0.0007826329
SCF cycle converged after 19 iterations

Using DM_out to compute the final energy and forces
No. of atoms with KB's overlaping orbs in proc 0. Max # of overlaps:       4      34

siesta: E_KS(eV) =             -900.1839

siesta: Atomic forces (eV/Ang):
----------------------------------------
   Tot   -0.000144   -0.003353    0.004176
----------------------------------------
   Max    4.752738
   Res    1.973212    sqrt( Sum f_i^2 / 3N )
----------------------------------------
   Max    4.752738    constrained

Stress tensor Voigt[x,y,z,yz,xz,xy] (kbar):       -0.76       -5.21       -0.74       -0.37       -0.08       -0.90
(Free)E + p*V (eV/cell)     -898.8588
Target enthalpy (eV/cell)     -900.2529

siesta: Stress tensor (static) (eV/Ang**3):
         0.005970   -0.001580   -0.000029
        -0.001579   -0.000489   -0.000275
        -0.000029   -0.000275   -0.000415

siesta: Pressure (static):         -2.70525626  kBar

siesta: Stress tensor (total) (eV/Ang**3):
        -0.000472   -0.000561   -0.000047
        -0.000561   -0.003252   -0.000231
        -0.000047   -0.000231   -0.000459

siesta: Pressure (total):          2.23364988  kBar

siesta: Temp_ion =   12364.842 K

                     ====================================
                        Begin MD step =     99
                     ====================================

outcell: Unit cell vectors (Ang):
       10.000000    0.000000    0.000000
        0.000000   10.000000    0.000000
        0.000000    0.000000   10.000000

outcell: Cell vector modules (Ang)   :   10.000000   10.000000   10.000000
outcell: Cell angles (23,13,12) (deg):     90.0000     90.0000     90.0000
outcell: Cell volume (Ang**3)        :   1000.0000
<dSpData1D:S at geom step 99
  <sparsity:sparsity for geom step 99
    nrows_g=36 nrows=36 sparsity=.9892 nnzs=1282, refcount: 7>
  <dData1D:(new from dSpData1D) n=1282, refcount: 1>
refcount: 1>
new_DM -- step:    99
Re-using DM from previous geometries...
Number of DMs in history: 1
 DM extrapolation coefficients: 
1   1.00000
New DM after history re-use:
<dSpData2D:SpM extrapolated using coords
  <sparsity:sparsity for geom step 99
    nrows_g=36 nrows=36 sparsity=.9892 nnzs=1282, refcount: 9>
  <dData2D:(temp array for extrapolation) n=1282 m=1, refcount: 1>
refcount: 1>
Note: For starting DM, Qtot, Tr[D*S] =         14.00000000         14.06764218
No. of atoms with KB's overlaping orbs in proc 0. Max # of overlaps:       4      34
New grid distribution:   1
           1       1:   45    1:   45    1:   45

InitMesh: MESH =    90 x    90 x    90 =      729000
InitMesh: (bp) =    45 x    45 x    45 =       91125
InitMesh: Mesh cutoff (required, used) =   200.000   223.865 Ry
ExtMesh (bp) on 0 =   117 x   117 x   117 =     1601613
PhiOnMesh: Number of (b)points on node 0 =                91125
PhiOnMesh: nlist on node 0 =               451282

        iscf     Eharris(eV)        E_KS(eV)     FreeEng(eV)     dDmax    Ef(eV) dHmax(eV)
   scf:    1     -900.009911     -899.721661     -899.790642  0.221519 -7.905322  1.463809
   scf:    2     -897.213448     -898.945360     -898.991534  0.573014 -6.947796  4.047644
   scf:    3     -899.964875     -899.737856     -899.806474  0.437114 -7.670907  0.932045
   scf:    4     -899.670211     -899.737726     -899.805198  0.161352 -7.520222  0.533069
   scf:    5     -899.760211     -899.750916     -899.819098  0.055863 -7.425407  0.132389
   scf:    6     -899.760976     -899.756739     -899.825527  0.030600 -7.413909  0.076084
   scf:    7     -899.760267     -899.759456     -899.828590  0.033629 -7.400657  0.030452
   scf:    8     -899.759602     -899.759544     -899.828649  0.010175 -7.383025  0.012244
   scf:    9     -899.759591     -899.759634     -899.828786  0.008911 -7.386773  0.006596
   scf:   10     -899.759632     -899.759635     -899.828785  0.001484 -7.386124  0.006453
   scf:   11     -899.759612     -899.759625     -899.828789  0.001332 -7.386491  0.006028
   scf:   12     -899.759631     -899.759628     -899.828790  0.000887 -7.385370  0.001347
   scf:   13     -899.759628     -899.759628     -899.828790  0.000141 -7.385215  0.001213
   scf:   14     -899.759627     -899.759628     -899.828791  0.000604 -7.384617  0.000106
   scf:   15     -899.759628     -899.759628     -899.828791  0.000002 -7.384621  0.000104

SCF Convergence by DM+H criterion
max |DM_out - DM_in|         :     0.0000023553
max |H_out - H_in|      (eV) :     0.0001040512
SCF cycle converged after 15 iterations

Using DM_out to compute the final energy and forces
No. of atoms with KB's overlaping orbs in proc 0. Max # of overlaps:       4      34

siesta: E_KS(eV) =             -899.7596

siesta: Atomic forces (eV/Ang):
----------------------------------------
   Tot    0.000527   -0.003859    0.001118
----------------------------------------
   Max    5.845650
   Res    3.588093    sqrt( Sum f_i^2 / 3N )
----------------------------------------
   Max    5.845650    constrained

Stress tensor Voigt[x,y,z,yz,xz,xy] (kbar):       -0.56       -7.41       -4.65       -3.27       -0.60       -0.85
(Free)E + p*V (eV/cell)     -897.2022
Target enthalpy (eV/cell)     -899.8288

siesta: Stress tensor (static) (eV/Ang**3):
         0.006272   -0.001561   -0.000209
        -0.001561   -0.001800   -0.002051
        -0.000209   -0.002051   -0.002832

siesta: Pressure (static):         -0.87614838  kBar

siesta: Stress tensor (total) (eV/Ang**3):
        -0.000351   -0.000528   -0.000375
        -0.000528   -0.004627   -0.002039
        -0.000375   -0.002039   -0.002902

siesta: Pressure (total):          4.20822822  kBar

siesta: Temp_ion =   11764.747 K

                     ====================================
                        Begin MD step =    100
                     ====================================

outcell: Unit cell vectors (Ang):
       10.000000    0.000000    0.000000
        0.000000   10.000000    0.000000
        0.000000    0.000000   10.000000

outcell: Cell vector modules (Ang)   :   10.000000   10.000000   10.000000
outcell: Cell angles (23,13,12) (deg):     90.0000     90.0000     90.0000
outcell: Cell volume (Ang**3)        :   1000.0000
<dSpData1D:S at geom step 100
  <sparsity:sparsity for geom step 100
    nrows_g=36 nrows=36 sparsity=.9877 nnzs=1280, refcount: 7>
  <dData1D:(new from dSpData1D) n=1280, refcount: 1>
refcount: 1>
new_DM -- step:   100
Re-using DM from previous geometries...
Number of DMs in history: 1
 DM extrapolation coefficients: 
1   1.00000
New DM after history re-use:
<dSpData2D:SpM extrapolated using coords
  <sparsity:sparsity for geom step 100
    nrows_g=36 nrows=36 sparsity=.9877 nnzs=1280, refcount: 9>
  <dData2D:(temp array for extrapolation) n=1280 m=1, refcount: 1>
refcount: 1>
Note: For starting DM, Qtot, Tr[D*S] =         14.00000000         13.92618870
No. of atoms with KB's overlaping orbs in proc 0. Max # of overlaps:       4      34
New grid distribution:   1
           1       1:   45    1:   45    1:   45

InitMesh: MESH =    90 x    90 x    90 =      729000
InitMesh: (bp) =    45 x    45 x    45 =       91125
InitMesh: Mesh cutoff (required, used) =   200.000   223.865 Ry
ExtMesh (bp) on 0 =   117 x   117 x   117 =     1601613
PhiOnMesh: Number of (b)points on node 0 =                91125
PhiOnMesh: nlist on node 0 =               451164

        iscf     Eharris(eV)        E_KS(eV)     FreeEng(eV)     dDmax    Ef(eV) dHmax(eV)
   scf:    1     -899.743781     -900.107270     -900.176050  0.498313 -6.805408  1.704725
   scf:    2     -895.181476     -898.591009     -898.601673  0.785475 -7.756862  5.939184
   scf:    3     -900.524202     -900.126045     -900.192036  0.552874 -7.014309  1.130722
   scf:    4     -900.154557     -900.141372     -900.208727  0.038901 -7.051896  0.968998
   scf:    5     -900.024725     -900.130240     -900.197660  0.255092 -7.380003  0.240297
   scf:    6     -900.070009     -900.149060     -900.215798  0.249351 -7.326336  0.198776
   scf:    7     -900.166479     -900.159082     -900.227054  0.037275 -7.321892  0.100462
   scf:    8     -900.155094     -900.157183     -900.224895  0.010215 -7.336982  0.111188
   scf:    9     -900.165367     -900.165341     -900.234472  0.070594 -7.350174  0.009125
   scf:   10     -900.165314     -900.165332     -900.234484  0.002629 -7.351375  0.006330
   scf:   11     -900.165338     -900.165337     -900.234485  0.002849 -7.352758  0.002436
   scf:   12     -900.165333     -900.165335     -900.234487  0.000856 -7.352491  0.001162
   scf:   13     -900.165336     -900.165336     -900.234488  0.000691 -7.352787  0.000777
   scf:   14     -900.165335     -900.165335     -900.234488  0.000094 -7.352849  0.000719

SCF Convergence by DM+H criterion
max |DM_out - DM_in|         :     0.0000937912
max |H_out - H_in|      (eV) :     0.0007190374
SCF cycle converged after 14 iterations

Using DM_out to compute the final energy and forces
No. of atoms with KB's overlaping orbs in proc 0. Max # of overlaps:       4      34

siesta: E_KS(eV) =             -900.1653

siesta: Atomic forces (eV/Ang):
----------------------------------------
   Tot   -0.004112   -0.006136   -0.004783
----------------------------------------
   Max    4.940644
   Res    2.046000    sqrt( Sum f_i^2 / 3N )
----------------------------------------
   Max    4.940644    constrained

Stress tensor Voigt[x,y,z,yz,xz,xy] (kbar):        0.05       -5.02       -1.09       -0.38        1.35        1.34
(Free)E + p*V (eV/cell)     -898.9734
Target enthalpy (eV/cell)     -900.2345

siesta: Stress tensor (static) (eV/Ang**3):
         0.006322   -0.000928    0.000308
        -0.000928   -0.000456   -0.000348
         0.000308   -0.000348   -0.000591

siesta: Pressure (static):         -2.81711288  kBar

siesta: Stress tensor (total) (eV/Ang**3):
         0.000033    0.000839    0.000846
         0.000839   -0.003135   -0.000238
         0.000846   -0.000238   -0.000681

siesta: Pressure (total):          2.02050683  kBar

siesta: Temp_ion =   12313.460 K

coxmol: Writing XMOL coordinates into file xoc.xyz                                                             

siesta: Program's energy decomposition (eV):
siesta: Ebs     =      -207.509030
siesta: Eions   =      1592.294315
siesta: Ena     =       382.220431
siesta: Ekin    =       627.332992
siesta: Enl     =       -90.544633
siesta: Eso     =         0.000000
siesta: Edftu   =         0.000000
siesta: DEna    =       -23.946631
siesta: DUscf   =         1.275235
siesta: DUext   =         0.000000
siesta: Exc     =      -204.208414
siesta: eta*DQ  =         0.000000
siesta: Emadel  =         0.000000
siesta: Emeta   =         0.000000
siesta: Emolmec =         0.000000
siesta: Ekinion =         4.774729
siesta: Eharris =      -895.390606
siesta: Etot    =      -895.390607
siesta: FreeEng =      -895.459760

siesta: Final energy (eV):
siesta:  Band Struct. =    -207.509030
siesta:       Kinetic =     627.332992
siesta:       Hartree =     864.284292
siesta:       Edftu   =       0.000000
siesta:       Eso     =       0.000000
siesta:    Ext. field =       0.000000
siesta:   Exch.-corr. =    -204.208414
siesta:  Ion-electron =   -2303.321135
siesta:       Ion-ion =     115.746930
siesta:       Ekinion =       4.774729
siesta:         Total =    -895.390607
siesta:         Fermi =      -7.352849

siesta: Atomic forces (eV/Ang):
siesta:      1   -4.940644    0.329737   -0.026344
siesta:      2    4.719414   -0.507961    0.065095
siesta:      3   -0.134413    0.778946    0.993431
siesta:      4    0.351531   -0.606857   -1.036965
siesta: ----------------------------------------
siesta:    Tot   -0.004112   -0.006136   -0.004783

siesta: Stress tensor (static) (eV/Ang**3):
siesta:     0.006322   -0.000928    0.000308
siesta:    -0.000928   -0.000456   -0.000348
siesta:     0.000308   -0.000348   -0.000591

siesta: Cell volume =       1000.000000 Ang**3

siesta: Pressure (static):
siesta:                Solid            Molecule  Units
siesta:          -0.00001915         -0.00000160  Ry/Bohr**3
siesta:          -0.00175828         -0.00014697  eV/Ang**3
siesta:          -2.81711288         -0.23547843  kBar
(Free)E+ p_basis*V_orbitals  =        -898.025897
(Free)Eharris+ p_basis*V_orbitals  =        -898.025897

siesta: Electric dipole (a.u.)  =   -1.463223   -1.463223   -0.009071
siesta: Electric dipole (Debye) =   -3.719144   -3.719144   -0.023056

cite: Please see "xoc.bib" for an exhaustive BiBTeX file.
cite: Please clearly indicate Siesta version in published work: 4.1.5
cite: This calculation has made use of the following articles
cite: which are encouraged to be cited in a published work.
        Primary SIESTA paper
          DOI: www.doi.org/10.1088/0953-8984/14/11/302


timer: Elapsed wall time (sec) =    1275.548
timer: CPU execution times (sec):

Routine            Calls   Time/call    Tot.time        %
siesta                 1    3571.180    3571.180   100.00
Setup                  1       0.180       0.180     0.01
bands                  1       0.000       0.000     0.00
KSV_init               1       0.000       0.000     0.00
IterGeom             100      35.710    3570.990    99.99
state_init           100       0.004       0.413     0.01
hsparse              100       0.000       0.039     0.00
overlap              100       0.003       0.295     0.01
Setup_H0             100       0.661      66.052     1.85
naefs                200       0.000       0.010     0.00
MolMec               200       0.000       0.000     0.00
kinefsm              200       0.002       0.357     0.01
nlefsm               200       0.008       1.561     0.04
DHSCF_Init           100       0.644      64.404     1.80
DHSCF1               100       0.044       4.416     0.12
INITMESH             100       0.000       0.001     0.00
DHSCF2               100       0.600      59.987     1.68
REMESH               100       0.099       9.937     0.28
REORD               5344       0.006      29.396     0.82
PHION                100       0.393      39.323     1.10
COMM_BSC            7988       0.005      36.570     1.02
POISON              2022       0.440     890.214    24.93
fft                 4044       0.163     659.404    18.46
IterSCF             1722       1.966    3385.336    94.80
setup_H             1822       1.856    3380.787    94.67
DHSCF               1922       1.819    3496.668    97.91
DHSCF3              1922       1.786    3432.019    96.10
rhoofd              1922       0.462     888.380    24.88
XC                  1922       0.712    1369.139    38.34
GXC-CellXC          1922       0.700    1345.929    37.69
cellXC              1922       0.700    1345.840    37.69
vmat                1922       0.026      50.543     1.42
compute_dm          1722       0.002       3.592     0.10
diagon              1722       0.002       3.491     0.10
r-eigvec            1722       0.001       1.260     0.04
r-buildHS           1722       0.000       0.014     0.00
rdiag               1722       0.001       1.194     0.03
rdiag1              1722       0.000       0.035     0.00
rdiag2              1722       0.000       0.063     0.00
rdiag3              1722       0.000       0.411     0.01
rdiag4              1722       0.000       0.561     0.02
r-buildD            1722       0.001       1.732     0.05
MIXER               1622       0.000       0.122     0.00
PostSCF              100       1.190     118.956     3.33
DHSCF4               100       0.646      64.625     1.81
dfscf                100       0.570      57.016     1.60
overfsm              100       0.001       0.070     0.00
state_analysis       100       0.000       0.043     0.00
siesta_move          100       0.001       0.139     0.00
Analysis               1       0.002       0.002     0.00
siesta_analysis        1       0.002       0.002     0.00
optical                1       0.000       0.000     0.00
  
>> End of run:  15-MAR-2024  13:10:27
Job completed
Job completed
