Siesta Version  : 4.1.5
Architecture    : unknown
Compiler version: GNU Fortran (GCC) 12.3.0
Compiler flags  : x86_64-apple-darwin13.4.0-gfortran -march=core2 -mtune=haswell -ftree-vectoriize -fPIC -fstack-protector -O2 -pipe  -fallow-argument-mismatch
PP flags        : -DFC_HAVE_ABORT -DCDF -DNCDF -DNCDF_4
Libraries       : libncdf.a libfdict.a -llapack -lblas -lnetcdff -lnetcdf -lhdf5_hl -lhdf5 -lz
SERIAL version
NetCDF support
NetCDF-4 support

* Running in serial mode
>> Start of run:  15-MAR-2024  11:18:22

                           ***********************       
                           *  WELCOME TO SIESTA  *       
                           ***********************       

reinit: Reading from xoc.fdf

reinit: -----------------------------------------------------------------------
reinit: System Name: H2 + O2 -> H2O2 reaction
reinit: -----------------------------------------------------------------------
reinit: System Label: xoc
reinit: -----------------------------------------------------------------------

initatom: Reading input for the pseudopotentials and atomic orbitals ----------
Species number:   1 Atomic number:    8 Label: O
Species number:   2 Atomic number:    1 Label: H

Ground state valence configuration:   2s02  2p04
Reading pseudopotential information in formatted form from O.psf

Pseudopotential generated from a relativistic atomic calculation

Valence configuration for pseudopotential generation:
2s( 2.00) rc: 1.14
2p( 4.00) rc: 1.14
3d( 0.00) rc: 1.14
4f( 0.00) rc: 1.14
Ground state valence configuration:   1s01
Reading pseudopotential information in unformatted form from H.vps

Valence configuration for pseudopotential generation:
1s( 1.00) rc: 1.25
2p( 0.00) rc: 1.25
3d( 0.00) rc: 1.25
4f( 0.00) rc: 1.25
For O, standard SIESTA heuristics set lmxkb to 3
 (one more than the basis l, including polarization orbitals).
Use PS.lmax or PS.KBprojectors blocks to override.
For H, standard SIESTA heuristics set lmxkb to 2
 (one more than the basis l, including polarization orbitals).
Use PS.lmax or PS.KBprojectors blocks to override.

<basis_specs>
===============================================================================
O                    Z=   8    Mass=  16.000        Charge=-0.18518    
Lmxo=2 Lmxkb= 3    BasisType=split      Semic=F
L=0  Nsemic=0  Cnfigmx=2
          i=1  nzeta=2  polorb=0  (2s)
            splnorm:   0.15000    
               vcte:    87.074    
               rinn:    4.7393    
               qcoe:    0.0000    
               qyuk:    0.0000    
               qwid:   0.10000E-01
                rcs:    7.3294      4.6037    
            lambdas:    1.0000      1.0000    
L=1  Nsemic=0  Cnfigmx=2
          i=1  nzeta=2  polorb=0  (2p)
            splnorm:   0.15000    
               vcte:    68.296    
               rinn:    4.9704    
               qcoe:    0.0000    
               qyuk:    0.0000    
               qwid:   0.10000E-01
                rcs:    6.6025      3.0467    
            lambdas:    1.0000      1.0000    
L=2  Nsemic=0  Cnfigmx=3
          i=1  nzeta=1  polorb=0  (3d)
            splnorm:   0.15000    
               vcte:    91.071    
               rinn:    3.9512    
               qcoe:    0.0000    
               qyuk:    0.0000    
               qwid:   0.10000E-01
                rcs:    6.8934    
            lambdas:    1.0000    
-------------------------------------------------------------------------------
L=0  Nkbl=1  erefs: 0.17977+309
L=1  Nkbl=1  erefs: 0.17977+309
L=2  Nkbl=1  erefs: 0.17977+309
L=3  Nkbl=1  erefs: 0.17977+309
===============================================================================
</basis_specs>

atom: Called for O                     (Z =   8)

read_vps: Pseudopotential generation method:
read_vps: ATM3      Troullier-Martins                       
Valence charge for ps generation:    6.00000

read_vps: Pseudopotential includes a core correction:
read_vps: Pseudo-core for xc-correction

xc_check: Exchange-correlation functional:
xc_check: GGA Perdew, Burke & Ernzerhof 1996
V l=0 = -2*Zval/r beyond r=  1.1278
V l=1 = -2*Zval/r beyond r=  1.1278
V l=2 = -2*Zval/r beyond r=  1.1278
V l=3 = -2*Zval/r beyond r=  1.1278
All V_l potentials equal beyond r=  1.1278
This should be close to max(r_c) in ps generation
All pots = -2*Zval/r beyond r=  1.1278

VLOCAL1: 99.0% of the norm of Vloc inside     34.126 Ry
VLOCAL1: 99.9% of the norm of Vloc inside     77.774 Ry
atom: Maximum radius for 4*pi*r*r*local-pseudopot. charge    1.37759
atom: Maximum radius for r*vlocal+2*Zval:    1.18566
GHOST: No ghost state for L =  0
GHOST: No ghost state for L =  1
GHOST: No ghost state for L =  2
GHOST: No ghost state for L =  3

KBgen: Kleinman-Bylander projectors: 
   l= 0   rc=  1.360471   el= -1.759790   Ekb=  9.210761   kbcos=  0.328866
   l= 1   rc=  1.360471   el= -0.663797   Ekb= -7.921990   kbcos= -0.392961
   l= 2   rc=  1.791199   el=  0.002031   Ekb= -1.950550   kbcos= -0.003498
   l= 3   rc=  2.107308   el=  0.003153   Ekb= -0.856060   kbcos= -0.000334

KBgen: Total number of Kleinman-Bylander projectors:   16
atom: -------------------------------------------------------------------------

atom: SANKEY-TYPE ORBITALS:
atom: Selected multiple-zeta basis: split     

atom: basis set generated (by rescaling the valence charge)
atom: for an anion of charge  -0.1852

SPLIT: Orbitals with angular momentum L= 0

SPLIT: Basis orbitals for state 2s

   izeta = 1
                 lambda =    1.000000
                     rc =    7.356000
                 energy =   -1.758588
                kinetic =    1.491851
    potential(screened) =   -3.250439
       potential(ionic) =  -11.062471

   izeta = 2
                 rmatch =    4.690281
              splitnorm =    0.003309
                 energy =   -1.757602
* WARNING: effective split_norm is quite small. Orbitals will be very similar.
                kinetic =    1.574378
    potential(screened) =   -3.331980
       potential(ionic) =  -11.238433

SPLIT: Orbitals with angular momentum L= 1

SPLIT: Basis orbitals for state 2p

   izeta = 1
                 lambda =    1.000000
                     rc =    6.655955
                 energy =   -0.659921
                kinetic =    4.410674
    potential(screened) =   -5.070596
       potential(ionic) =  -12.498772

   izeta = 2
                 rmatch =    3.066256
              splitnorm =    0.127283
                 energy =   -0.537509
                kinetic =    6.271972
    potential(screened) =   -6.809481
       potential(ionic) =  -15.130217

SPLIT: Orbitals with angular momentum L= 2

SPLIT: Basis orbitals for state 3d

   izeta = 1
                 lambda =    1.000000
                     rc =    6.997229
                 energy =    0.764795
                kinetic =    1.136799
    potential(screened) =   -0.372004
       potential(ionic) =   -3.984199
atom: Total number of Sankey-type orbitals: 13

atm_pop: Valence configuration (for local Pseudopot. screening):
 2s( 2.00)                                                            
 2p( 4.00)                                                            
 3d( 0.00)                                                            
Vna: chval, zval:    6.00000   6.00000

Vna:  Cut-off radius for the neutral-atom potential:   7.356000
comcore: Pseudo-core radius Rcore=  1.377587

atom: _________________________________________________________________________

<basis_specs>
===============================================================================
H                    Z=   1    Mass=  1.0100        Charge= 0.22000    
Lmxo=1 Lmxkb= 2    BasisType=split      Semic=F
L=0  Nsemic=0  Cnfigmx=1
          i=1  nzeta=2  polorb=0  (1s)
            splnorm:   0.15000    
               vcte:    2.0700    
               rinn:    0.0000    
               qcoe:    0.0000    
               qyuk:    0.0000    
               qwid:   0.10000E-01
                rcs:    4.9710      1.7710    
            lambdas:    1.0000      1.0000    
L=1  Nsemic=0  Cnfigmx=2
          i=1  nzeta=1  polorb=0  (2p)
            splnorm:   0.15000    
               vcte:   0.89000    
               rinn:   0.10000E-01
               qcoe:    0.0000    
               qyuk:    0.0000    
               qwid:   0.10000E-01
                rcs:    4.9880    
            lambdas:    1.0000    
-------------------------------------------------------------------------------
L=0  Nkbl=1  erefs: 0.17977+309
L=1  Nkbl=1  erefs: 0.17977+309
L=2  Nkbl=1  erefs: 0.17977+309
===============================================================================
</basis_specs>

atom: Called for H                     (Z =   1)

read_vps: Pseudopotential generation method:
read_vps: ATM3      Troullier-Martins                       
Valence charge for ps generation:    1.00000

xc_check: Exchange-correlation functional:
xc_check: GGA Perdew, Burke & Ernzerhof 1996
V l=0 = -2*Zval/r beyond r=  1.2343
V l=1 = -2*Zval/r beyond r=  1.2189
V l=2 = -2*Zval/r beyond r=  1.2189
All V_l potentials equal beyond r=  1.2343
This should be close to max(r_c) in ps generation
All pots = -2*Zval/r beyond r=  1.2343

VLOCAL1: 99.0% of the norm of Vloc inside     28.493 Ry
VLOCAL1: 99.9% of the norm of Vloc inside     64.935 Ry
atom: Maximum radius for 4*pi*r*r*local-pseudopot. charge    1.45251
atom: Maximum radius for r*vlocal+2*Zval:    1.21892
GHOST: No ghost state for L =  0
GHOST: No ghost state for L =  1
GHOST: No ghost state for L =  2

KBgen: Kleinman-Bylander projectors: 
   l= 0   rc=  1.364359   el= -0.477200   Ekb= -2.021939   kbcos= -0.344793
   l= 1   rc=  1.434438   el=  0.001076   Ekb= -0.443447   kbcos= -0.022843
   l= 2   rc=  1.470814   el=  0.002010   Ekb= -0.140543   kbcos= -0.002863

KBgen: Total number of Kleinman-Bylander projectors:    9
atom: -------------------------------------------------------------------------

atom: SANKEY-TYPE ORBITALS:
atom: Selected multiple-zeta basis: split     

atom: basis set generated (by rescaling the valence charge)
atom: for a cation of charge   0.2200

SPLIT: Orbitals with angular momentum L= 0

SPLIT: Basis orbitals for state 1s

   izeta = 1
                 lambda =    1.000000
                     rc =    4.950554
                 energy =   -0.678603
                kinetic =    1.118239
    potential(screened) =   -1.796842
       potential(ionic) =   -2.106311

   izeta = 2
                 rmatch =    1.774652
              splitnorm =    0.672347
                 energy =    1.027037
                kinetic =    4.730146
    potential(screened) =   -3.703109
       potential(ionic) =   -3.968059

SPLIT: Orbitals with angular momentum L= 1

SPLIT: Basis orbitals for state 2p

   izeta = 1
                 lambda =    1.000000
                     rc =    5.075940
                 energy =    0.310352
                kinetic =    0.887169
    potential(screened) =   -0.576817
       potential(ionic) =   -0.872649
atom: Total number of Sankey-type orbitals:  5

atm_pop: Valence configuration (for local Pseudopot. screening):
 1s( 1.00)                                                            
 2p( 0.00)                                                            
Vna: chval, zval:    1.00000   1.00000

Vna:  Cut-off radius for the neutral-atom potential:   4.950554

atom: _________________________________________________________________________

prinput: Basis input ----------------------------------------------------------

PAO.BasisType split     

%block ChemicalSpeciesLabel
    1    8 O                       # Species index, atomic number, species label
    2    1 H                       # Species index, atomic number, species label
%endblock ChemicalSpeciesLabel

%block PAO.Basis                 # Define Basis set
O                     3  -0.185            # Label, l-shells, ionic net charge
 n=2   0   2                         # n, l, Nzeta 
   7.356      4.690   
   1.000      1.000   
 n=2   1   2                         # n, l, Nzeta 
   6.656      3.066   
   1.000      1.000   
 n=3   2   1                         # n, l, Nzeta 
   6.997   
   1.000   
H                     2   0.220            # Label, l-shells, ionic net charge
 n=1   0   2                         # n, l, Nzeta 
   4.951      1.775   
   1.000      1.000   
 n=2   1   1                         # n, l, Nzeta 
   5.076   
   1.000   
%endblock PAO.Basis

prinput: ----------------------------------------------------------------------

Dumping basis to NetCDF file O.ion.nc
Dumping basis to NetCDF file H.ion.nc
coor:   Atomic-coordinates input format  =     Cartesian coordinates
coor:                                          (in Angstroms)

ioxv: Reading coordinates and velocities from file
! Info in XV file prevails over previous structure input
WARNING: xoc.VERLET_RESTART not found--reading only XV file and moving back 1 time step using Euler

siesta: Atomic coordinates (Bohr) and species
siesta:     10.54735  -0.00100  -0.00070  1        1
siesta:     13.01155  -0.00100  -0.00070  1        2
siesta:     20.94052   0.01600   0.01130  2        3
siesta:     22.34566   0.01600   0.01130  2        4

siesta: System type = chain     

initatomlists: Number of atoms, orbitals, and projectors:      4    36    50

coxmol: Writing XMOL coordinates into file xoc.xyz                                                             

siesta: ******************** Simulation parameters ****************************
siesta:
siesta: The following are some of the parameters of the simulation.
siesta: A complete list of the parameters used, including default values,
siesta: can be found in file out.fdf
siesta:
redata: Spin configuration                          = none
redata: Number of spin components                   = 1
redata: Time-Reversal Symmetry                      = T
redata: Spin spiral                                 = F
redata: Long output                                 =   F
redata: Number of Atomic Species                    =        2
redata: Charge density info will appear in .RHO file
redata: Write Mulliken Pop.                         = NO
redata: Matel table size (NRTAB)                    =     1024
redata: Mesh Cutoff                                 =   200.0000 Ry
redata: Net charge of the system                    =     0.0000 |e|
redata: Min. number of SCF Iter                     =        0
redata: Max. number of SCF Iter                     =      150
redata: SCF convergence failure will abort job
redata: SCF mix quantity                            = Hamiltonian
redata: Mix DM or H after convergence               =   F
redata: Recompute H after scf cycle                 =   F
redata: Mix DM in first SCF step                    =   T
redata: Write Pulay info on disk                    =   F
redata: New DM Occupancy tolerance                  = 0.000000000001
redata: No kicks to SCF
redata: DM Mixing Weight for Kicks                  =     0.5000
redata: Require Harris convergence for SCF          =   F
redata: Harris energy tolerance for SCF             =     0.000100 eV
redata: Require DM convergence for SCF              =   T
redata: DM tolerance for SCF                        =     0.000300
redata: Require EDM convergence for SCF             =   F
redata: EDM tolerance for SCF                       =     0.001000 eV
redata: Require H convergence for SCF               =   T
redata: Hamiltonian tolerance for SCF               =     0.001000 eV
redata: Require (free) Energy convergence for SCF   =   F
redata: (free) Energy tolerance for SCF             =     0.000100 eV
redata: Using Saved Data (generic)                  =   F
redata: Use continuation files for DM               =   F
redata: Neglect nonoverlap interactions             =   F
redata: Method of Calculation                       = Diagonalization
redata: Electronic Temperature                      =   290.1109 K
redata: Fix the spin of the system                  =   F
redata: Dynamics option                             = Verlet MD run
redata: Initial MD time step                        =        1
redata:   Final MD time step                        =      100
redata: Length of MD time step                      =     1.0000 fs
redata: Initial Temperature of MD run               =     0.0000 K
redata: Perform a MD quench                         =   F
mix.SCF: Pulay mixing                            = Pulay
mix.SCF:    Variant                              = stable
mix.SCF:    History steps                        = 6
mix.SCF:    Linear mixing weight                 =     0.020000
mix.SCF:    Mixing weight                        =     0.020000
mix.SCF:    SVD condition                        = 0.1000E-07
redata: Save all siesta data in one NC              =   F
redata: ***********************************************************************

%block SCF.Mixers
  Pulay
%endblock SCF.Mixers

%block SCF.Mixer.Pulay
  # Mixing method
  method pulay
  variant stable

  # Mixing options
  weight 0.0200
  weight.linear 0.0200
  history 6
%endblock SCF.Mixer.Pulay

Size of DM history Fstack: 1
Total number of electrons:    14.000000
Total ionic charge:    14.000000
 Kpoints in:            1 . Kpoints trimmed:            1

siesta: k-grid: Number of k-points =     1
siesta: k-grid: Cutoff (effective) =     5.000 Ang
siesta: k-grid: Supercell and displacements
siesta: k-grid:    1   0   0      0.000
siesta: k-grid:    0   1   0      0.000
siesta: k-grid:    0   0   1      0.000

diag: Algorithm                                     = D&C
diag: Used triangular part                          = Lower
diag: Absolute tolerance                            =  0.100E-15
diag: Orthogonalization factor                      =  0.100E-05
diag: Memory factor                                 =  1.0000


ts: **************************************************************
ts: Save H and S matrices                           =    F
ts: Save DM and EDM matrices                        =    F
ts: Only save the overlap matrix S                  =    F
ts: **************************************************************

************************ Begin: TS CHECKS AND WARNINGS ************************
************************ End: TS CHECKS AND WARNINGS **************************


                     ====================================
                        Begin MD step =      1
                     ====================================

outcell: Unit cell vectors (Ang):
       10.000000    0.000000    0.000000
        0.000000   10.000000    0.000000
        0.000000    0.000000   10.000000

outcell: Cell vector modules (Ang)   :   10.000000   10.000000   10.000000
outcell: Cell angles (23,13,12) (deg):     90.0000     90.0000     90.0000
outcell: Cell volume (Ang**3)        :   1000.0000
Gamma-point calculation with multiply-connected orbital pairs
Gamma-point calculation with multiply-connected orbital pairs
Folding of H and S implicitly performed
Folding of H and S implicitly performed
<dSpData1D:S at geom step 1
  <sparsity:sparsity for geom step 1
    nrows_g=36 nrows=36 sparsity=.9522 nnzs=1234, refcount: 7>
  <dData1D:(new from dSpData1D) n=1234, refcount: 1>
refcount: 1>
new_DM -- step:     1
Initializing Density Matrix...
DM filled with atomic data:
<dSpData2D:DM initialized from atoms
  <sparsity:sparsity for geom step 1
    nrows_g=36 nrows=36 sparsity=.9522 nnzs=1234, refcount: 8>
  <dData2D:DM n=1234 m=1, refcount: 1>
refcount: 1>
No. of atoms with KB's overlaping orbs in proc 0. Max # of overlaps:       4      29
New grid distribution:   1
           1       1:   45    1:   45    1:   45

InitMesh: MESH =    90 x    90 x    90 =      729000
InitMesh: (bp) =    45 x    45 x    45 =       91125
InitMesh: Mesh cutoff (required, used) =   200.000   223.865 Ry
ExtMesh (bp) on 0 =   117 x   117 x   117 =     1601613
PhiOnMesh: Number of (b)points on node 0 =                91125
PhiOnMesh: nlist on node 0 =               451429

stepf: Fermi-Dirac step function

siesta: Program's energy decomposition (eV):
siesta: Ebs     =      -190.948626
siesta: Eions   =      1592.294315
siesta: Ena     =       380.201806
siesta: Ekin    =       663.410737
siesta: Enl     =      -100.295389
siesta: Eso     =         0.000000
siesta: Edftu   =         0.000000
siesta: DEna    =       -43.048773
siesta: DUscf   =         3.005391
siesta: DUext   =         0.000000
siesta: Exc     =      -210.895475
siesta: eta*DQ  =         0.000000
siesta: Emadel  =         0.000000
siesta: Emeta   =         0.000000
siesta: Emolmec =         0.000000
siesta: Ekinion =         0.000000
siesta: Eharris =      -900.674530
siesta: Etot    =      -899.916018
siesta: FreeEng =      -899.985332

        iscf     Eharris(eV)        E_KS(eV)     FreeEng(eV)     dDmax    Ef(eV) dHmax(eV)
   scf:    1     -900.674530     -899.916018     -899.985332  3.410335 -9.442728  4.725341
timer: Routine,Calls,Time,% = IterSCF        1       2.387  49.48
   scf:    2     -899.998084     -899.957177     -900.026491  0.062556 -9.352686  4.566782
   scf:    3     -900.969132     -900.591022     -900.660336  2.454595 -6.787068  0.575305
   scf:    4     -900.032479     -900.361420     -900.430734  1.902987 -5.439049  3.264083
   scf:    5     -900.739499     -900.602184     -900.671498  1.610525 -6.781561  0.185520
   scf:    6     -900.602616     -900.602408     -900.671723  0.016839 -6.798463  0.139355
   scf:    7     -900.585478     -900.596112     -900.665426  0.315237 -7.093465  0.536804
   scf:    8     -900.606910     -900.602589     -900.671903  0.205405 -6.879959  0.085487
   scf:    9     -900.602833     -900.602721     -900.672036  0.013740 -6.860352  0.043252
   scf:   10     -900.602777     -900.602763     -900.672078  0.022896 -6.836580  0.011547
   scf:   11     -900.602763     -900.602764     -900.672079  0.005822 -6.840493  0.003711
   scf:   12     -900.602765     -900.602764     -900.672079  0.001353 -6.839014  0.000506
   scf:   13     -900.602765     -900.602765     -900.672079  0.000356 -6.838930  0.000203
   scf:   14     -900.602765     -900.602765     -900.672079  0.000019 -6.838924  0.000204

SCF Convergence by DM+H criterion
max |DM_out - DM_in|         :     0.0000193848
max |H_out - H_in|      (eV) :     0.0002042540
SCF cycle converged after 14 iterations

Using DM_out to compute the final energy and forces
No. of atoms with KB's overlaping orbs in proc 0. Max # of overlaps:       4      29

siesta: E_KS(eV) =             -900.6028

siesta: E_KS - E_eggbox =      -900.6028

siesta: Atomic forces (eV/Ang):
----------------------------------------
   Tot    0.002166    0.000506    0.000390
----------------------------------------
   Max    0.099791
   Res    0.041926    sqrt( Sum f_i^2 / 3N )
----------------------------------------
   Max    0.099791    constrained

Stress tensor Voigt[x,y,z,yz,xz,xy] (kbar):      -16.30       -0.42       -0.25       -0.10        0.05        0.26
(Free)E + p*V (eV/cell)     -897.1425
Target enthalpy (eV/cell)     -900.6721

siesta: Stress tensor (static) (eV/Ang**3):
         0.000023   -0.000000   -0.000000
        -0.000000    0.000006   -0.000000
        -0.000000   -0.000000    0.000006

siesta: Pressure (static):         -0.01834013  kBar

siesta: Stress tensor (total) (eV/Ang**3):
        -0.010175    0.000163    0.000029
         0.000163   -0.000259   -0.000060
         0.000029   -0.000060   -0.000154

siesta: Pressure (total):          5.65513466  kBar

siesta: Temp_ion =   13797.487 K

                     ====================================
                        Begin MD step =      2
                     ====================================

outcell: Unit cell vectors (Ang):
       10.000000    0.000000    0.000000
        0.000000   10.000000    0.000000
        0.000000    0.000000   10.000000

outcell: Cell vector modules (Ang)   :   10.000000   10.000000   10.000000
outcell: Cell angles (23,13,12) (deg):     90.0000     90.0000     90.0000
outcell: Cell volume (Ang**3)        :   1000.0000
Gamma-point calculation with multiply-connected orbital pairs
Gamma-point calculation with multiply-connected orbital pairs
Folding of H and S implicitly performed
Folding of H and S implicitly performed
<dSpData1D:S at geom step 2
  <sparsity:sparsity for geom step 2
    nrows_g=36 nrows=36 sparsity=.9383 nnzs=1216, refcount: 7>
  <dData1D:(new from dSpData1D) n=1216, refcount: 1>
refcount: 1>
new_DM -- step:     2
Re-using DM from previous geometries...
Number of DMs in history: 1
 DM extrapolation coefficients: 
1   1.00000
New DM after history re-use:
<dSpData2D:SpM extrapolated using coords
  <sparsity:sparsity for geom step 2
    nrows_g=36 nrows=36 sparsity=.9383 nnzs=1216, refcount: 9>
  <dData2D:(temp array for extrapolation) n=1216 m=1, refcount: 1>
refcount: 1>
Note: For starting DM, Qtot, Tr[D*S] =         14.00000000         14.01600811
No. of atoms with KB's overlaping orbs in proc 0. Max # of overlaps:       4      26
New grid distribution:   1
           1       1:   45    1:   45    1:   45

InitMesh: MESH =    90 x    90 x    90 =      729000
InitMesh: (bp) =    45 x    45 x    45 =       91125
InitMesh: Mesh cutoff (required, used) =   200.000   223.865 Ry
ExtMesh (bp) on 0 =   117 x   117 x   117 =     1601613
PhiOnMesh: Number of (b)points on node 0 =                91125
PhiOnMesh: nlist on node 0 =               451273

        iscf     Eharris(eV)        E_KS(eV)     FreeEng(eV)     dDmax    Ef(eV) dHmax(eV)
   scf:    1     -900.466225     -900.593320     -900.662635  0.185267 -6.884175  0.180669
   scf:    2     -900.592727     -900.593584     -900.662895  0.196950 -6.723537  0.169342
   scf:    3     -900.594402     -900.594095     -900.663409  0.081823 -6.789634  0.027027
   scf:    4     -900.594096     -900.594129     -900.663442  0.009469 -6.785247  0.018924
   scf:    5     -900.594146     -900.594142     -900.663456  0.002988 -6.787806  0.018855
   scf:    6     -900.594104     -900.594127     -900.663442  0.021519 -6.771240  0.032908
   scf:    7     -900.594101     -900.594133     -900.663448  0.029062 -6.795543  0.031429
   scf:    8     -900.594160     -900.594150     -900.663464  0.010466 -6.784729  0.006205
   scf:    9     -900.594150     -900.594150     -900.663465  0.001796 -6.782803  0.000096
   scf:   10     -900.594150     -900.594150     -900.663465  0.000018 -6.782802  0.000093

SCF Convergence by DM+H criterion
max |DM_out - DM_in|         :     0.0000175249
max |H_out - H_in|      (eV) :     0.0000930598
SCF cycle converged after 10 iterations

Using DM_out to compute the final energy and forces
No. of atoms with KB's overlaping orbs in proc 0. Max # of overlaps:       4      26

siesta: E_KS(eV) =             -900.5942

siesta: Atomic forces (eV/Ang):
----------------------------------------
   Tot    0.007061   -0.000276    0.000517
----------------------------------------
   Max    0.629063
   Res    0.337142    sqrt( Sum f_i^2 / 3N )
----------------------------------------
   Max    0.629063    constrained

Stress tensor Voigt[x,y,z,yz,xz,xy] (kbar):      -18.05       -0.42       -0.25       -0.10        0.00        0.22
(Free)E + p*V (eV/cell)     -896.7690
Target enthalpy (eV/cell)     -900.6635

siesta: Stress tensor (static) (eV/Ang**3):
        -0.001069   -0.000029   -0.000027
        -0.000029    0.000005   -0.000001
        -0.000027   -0.000001    0.000004

siesta: Pressure (static):          0.56624142  kBar

siesta: Stress tensor (total) (eV/Ang**3):
        -0.011267    0.000134    0.000002
         0.000135   -0.000260   -0.000061
         0.000002   -0.000061   -0.000156

siesta: Pressure (total):          6.23971622  kBar

siesta: Temp_ion =   13779.867 K

                     ====================================
                        Begin MD step =      3
                     ====================================

outcell: Unit cell vectors (Ang):
       10.000000    0.000000    0.000000
        0.000000   10.000000    0.000000
        0.000000    0.000000   10.000000

outcell: Cell vector modules (Ang)   :   10.000000   10.000000   10.000000
outcell: Cell angles (23,13,12) (deg):     90.0000     90.0000     90.0000
outcell: Cell volume (Ang**3)        :   1000.0000
Gamma-point calculation with multiply-connected orbital pairs
Gamma-point calculation with multiply-connected orbital pairs
Folding of H and S implicitly performed
Folding of H and S implicitly performed
<dSpData1D:S at geom step 3
  <sparsity:sparsity for geom step 3
    nrows_g=36 nrows=36 sparsity=.9522 nnzs=1234, refcount: 7>
  <dData1D:(new from dSpData1D) n=1234, refcount: 1>
refcount: 1>
new_DM -- step:     3
Re-using DM from previous geometries...
Number of DMs in history: 1
 DM extrapolation coefficients: 
1   1.00000
New DM after history re-use:
<dSpData2D:SpM extrapolated using coords
  <sparsity:sparsity for geom step 3
    nrows_g=36 nrows=36 sparsity=.9522 nnzs=1234, refcount: 9>
  <dData2D:(temp array for extrapolation) n=1234 m=1, refcount: 1>
refcount: 1>
No. of atoms with KB's overlaping orbs in proc 0. Max # of overlaps:       4      29
New grid distribution:   1
           1       1:   45    1:   45    1:   45

InitMesh: MESH =    90 x    90 x    90 =      729000
InitMesh: (bp) =    45 x    45 x    45 =       91125
InitMesh: Mesh cutoff (required, used) =   200.000   223.865 Ry
ExtMesh (bp) on 0 =   117 x   117 x   117 =     1601613
PhiOnMesh: Number of (b)points on node 0 =                91125
PhiOnMesh: nlist on node 0 =               451295

        iscf     Eharris(eV)        E_KS(eV)     FreeEng(eV)     dDmax    Ef(eV) dHmax(eV)
   scf:    1     -900.417676     -900.588022     -900.657337  0.265520 -6.725964  0.072737
   scf:    2     -900.587224     -900.587915     -900.657208  0.077623 -6.735863  0.069318
   scf:    3     -900.588436     -900.588246     -900.657557  0.031843 -6.731772  0.025311
   scf:    4     -900.588140     -900.588283     -900.657594  0.011938 -6.732293  0.011292
   scf:    5     -900.588324     -900.588323     -900.657637  0.005467 -6.732037  0.002511
   scf:    6     -900.588320     -900.588322     -900.657636  0.002914 -6.732002  0.003799
   scf:    7     -900.588324     -900.588323     -900.657638  0.000986 -6.731140  0.000659
   scf:    8     -900.588323     -900.588323     -900.657638  0.000561 -6.731208  0.000202
   scf:    9     -900.588323     -900.588323     -900.657638  0.000041 -6.731245  0.000111

SCF Convergence by DM+H criterion
max |DM_out - DM_in|         :     0.0000411172
max |H_out - H_in|      (eV) :     0.0001107692
SCF cycle converged after 9 iterations

Using DM_out to compute the final energy and forces
No. of atoms with KB's overlaping orbs in proc 0. Max # of overlaps:       4      29

siesta: E_KS(eV) =             -900.5883

siesta: Atomic forces (eV/Ang):
----------------------------------------
   Tot    0.010694   -0.000711    0.000055
----------------------------------------
   Max    1.133692
   Res    0.508686    sqrt( Sum f_i^2 / 3N )
----------------------------------------
   Max    1.133692    constrained

Stress tensor Voigt[x,y,z,yz,xz,xy] (kbar):      -19.03       -0.43       -0.26       -0.11       -0.05        0.12
(Free)E + p*V (eV/cell)     -896.5542
Target enthalpy (eV/cell)     -900.6576

siesta: Stress tensor (static) (eV/Ang**3):
        -0.001699   -0.000073   -0.000050
        -0.000073    0.000000   -0.000005
        -0.000050   -0.000005   -0.000002

siesta: Pressure (static):          0.90835335  kBar

siesta: Stress tensor (total) (eV/Ang**3):
        -0.011880    0.000076   -0.000033
         0.000076   -0.000266   -0.000067
        -0.000033   -0.000067   -0.000165

siesta: Pressure (total):          6.57458295  kBar

siesta: Temp_ion =   13765.261 K

                     ====================================
                        Begin MD step =      4
                     ====================================

outcell: Unit cell vectors (Ang):
       10.000000    0.000000    0.000000
        0.000000   10.000000    0.000000
        0.000000    0.000000   10.000000

outcell: Cell vector modules (Ang)   :   10.000000   10.000000   10.000000
outcell: Cell angles (23,13,12) (deg):     90.0000     90.0000     90.0000
outcell: Cell volume (Ang**3)        :   1000.0000
Gamma-point calculation with multiply-connected orbital pairs
Gamma-point calculation with multiply-connected orbital pairs
Folding of H and S implicitly performed
Folding of H and S implicitly performed
<dSpData1D:S at geom step 4
  <sparsity:sparsity for geom step 4
    nrows_g=36 nrows=36 sparsity=.9475 nnzs=1228, refcount: 7>
  <dData1D:(new from dSpData1D) n=1228, refcount: 1>
refcount: 1>
new_DM -- step:     4
Re-using DM from previous geometries...
Number of DMs in history: 1
 DM extrapolation coefficients: 
1   1.00000
New DM after history re-use:
<dSpData2D:SpM extrapolated using coords
  <sparsity:sparsity for geom step 4
    nrows_g=36 nrows=36 sparsity=.9475 nnzs=1228, refcount: 9>
  <dData2D:(temp array for extrapolation) n=1228 m=1, refcount: 1>
refcount: 1>
No. of atoms with KB's overlaping orbs in proc 0. Max # of overlaps:       4      30
New grid distribution:   1
           1       1:   45    1:   45    1:   45

InitMesh: MESH =    90 x    90 x    90 =      729000
InitMesh: (bp) =    45 x    45 x    45 =       91125
InitMesh: Mesh cutoff (required, used) =   200.000   223.865 Ry
ExtMesh (bp) on 0 =   117 x   117 x   117 =     1601613
PhiOnMesh: Number of (b)points on node 0 =                91125
PhiOnMesh: nlist on node 0 =               451300

        iscf     Eharris(eV)        E_KS(eV)     FreeEng(eV)     dDmax    Ef(eV) dHmax(eV)
   scf:    1     -900.384662     -900.586139     -900.655453  0.364142 -6.576813  0.229257
   scf:    2     -900.583084     -900.585722     -900.655003  0.078146 -6.757904  0.241968
   scf:    3     -900.587676     -900.586931     -900.656240  0.032958 -6.682352  0.041748
   scf:    4     -900.586786     -900.587018     -900.656327  0.010521 -6.686007  0.026499
   scf:    5     -900.586978     -900.587068     -900.656381  0.007816 -6.690744  0.019217
   scf:    6     -900.586996     -900.587049     -900.656363  0.005146 -6.700202  0.041445
   scf:    7     -900.587095     -900.587092     -900.656406  0.020187 -6.683823  0.011725
   scf:    8     -900.587095     -900.587094     -900.656408  0.004042 -6.687810  0.003813
   scf:    9     -900.587095     -900.587095     -900.656409  0.000892 -6.688554  0.000267
   scf:   10     -900.587095     -900.587095     -900.656409  0.000060 -6.688568  0.000220

SCF Convergence by DM+H criterion
max |DM_out - DM_in|         :     0.0000598911
max |H_out - H_in|      (eV) :     0.0002199594
SCF cycle converged after 10 iterations

Using DM_out to compute the final energy and forces
No. of atoms with KB's overlaping orbs in proc 0. Max # of overlaps:       4      30

siesta: E_KS(eV) =             -900.5871

siesta: Atomic forces (eV/Ang):
----------------------------------------
   Tot    0.011466   -0.001243   -0.000503
----------------------------------------
   Max    1.557204
   Res    0.629352    sqrt( Sum f_i^2 / 3N )
----------------------------------------
   Max    1.557204    constrained

Stress tensor Voigt[x,y,z,yz,xz,xy] (kbar):      -19.21       -0.43       -0.26       -0.10        0.02        0.08
(Free)E + p*V (eV/cell)     -896.5169
Target enthalpy (eV/cell)     -900.6564

siesta: Stress tensor (static) (eV/Ang**3):
        -0.001830   -0.000068    0.000020
        -0.000068    0.000002    0.000002
         0.000020    0.000002    0.000008

siesta: Pressure (static):          0.97211086  kBar

siesta: Stress tensor (total) (eV/Ang**3):
        -0.011991    0.000049    0.000011
         0.000049   -0.000267   -0.000064
         0.000011   -0.000064   -0.000161

siesta: Pressure (total):          6.63233462  kBar

siesta: Temp_ion =   13759.012 K

                     ====================================
                        Begin MD step =      5
                     ====================================

outcell: Unit cell vectors (Ang):
       10.000000    0.000000    0.000000
        0.000000   10.000000    0.000000
        0.000000    0.000000   10.000000

outcell: Cell vector modules (Ang)   :   10.000000   10.000000   10.000000
outcell: Cell angles (23,13,12) (deg):     90.0000     90.0000     90.0000
outcell: Cell volume (Ang**3)        :   1000.0000
Gamma-point calculation with multiply-connected orbital pairs
Gamma-point calculation with multiply-connected orbital pairs
Folding of H and S implicitly performed
Folding of H and S implicitly performed
<dSpData1D:S at geom step 5
  <sparsity:sparsity for geom step 5
    nrows_g=36 nrows=36 sparsity=.9414 nnzs=1220, refcount: 7>
  <dData1D:(new from dSpData1D) n=1220, refcount: 1>
refcount: 1>
new_DM -- step:     5
Re-using DM from previous geometries...
Number of DMs in history: 1
 DM extrapolation coefficients: 
1   1.00000
New DM after history re-use:
<dSpData2D:SpM extrapolated using coords
  <sparsity:sparsity for geom step 5
    nrows_g=36 nrows=36 sparsity=.9414 nnzs=1220, refcount: 9>
  <dData2D:(temp array for extrapolation) n=1220 m=1, refcount: 1>
refcount: 1>
No. of atoms with KB's overlaping orbs in proc 0. Max # of overlaps:       4      30
New grid distribution:   1
           1       1:   45    1:   45    1:   45

InitMesh: MESH =    90 x    90 x    90 =      729000
InitMesh: (bp) =    45 x    45 x    45 =       91125
InitMesh: Mesh cutoff (required, used) =   200.000   223.865 Ry
ExtMesh (bp) on 0 =   117 x   117 x   117 =     1601613
PhiOnMesh: Number of (b)points on node 0 =                91125
PhiOnMesh: nlist on node 0 =               451198

        iscf     Eharris(eV)        E_KS(eV)     FreeEng(eV)     dDmax    Ef(eV) dHmax(eV)
   scf:    1     -900.397210     -900.575443     -900.644756  0.444188 -6.519937  0.282777
   scf:    2     -900.564402     -900.572707     -900.641818  0.134066 -6.744443  0.330659
   scf:    3     -900.578222     -900.576173     -900.645456  0.058014 -6.647470  0.067871
   scf:    4     -900.575492     -900.576464     -900.645758  0.025424 -6.653779  0.033748
   scf:    5     -900.576605     -900.576687     -900.646001  0.012887 -6.659774  0.024079
   scf:    6     -900.576541     -900.576633     -900.645947  0.007472 -6.672769  0.054803
   scf:    7     -900.576733     -900.576709     -900.646024  0.020835 -6.656123  0.004625
   scf:    8     -900.576707     -900.576708     -900.646023  0.001447 -6.657612  0.003228
   scf:    9     -900.576709     -900.576709     -900.646024  0.001019 -6.658232  0.000446
   scf:   10     -900.576709     -900.576709     -900.646024  0.000133 -6.658292  0.000381

SCF Convergence by DM+H criterion
max |DM_out - DM_in|         :     0.0001326772
max |H_out - H_in|      (eV) :     0.0003806764
SCF cycle converged after 10 iterations

Using DM_out to compute the final energy and forces
No. of atoms with KB's overlaping orbs in proc 0. Max # of overlaps:       4      30

siesta: E_KS(eV) =             -900.5767

siesta: Atomic forces (eV/Ang):
----------------------------------------
   Tot    0.012481   -0.000655    0.000433
----------------------------------------
   Max    1.855942
   Res    0.802476    sqrt( Sum f_i^2 / 3N )
----------------------------------------
   Max    1.855942    constrained

Stress tensor Voigt[x,y,z,yz,xz,xy] (kbar):      -19.08       -0.41       -0.19       -0.06        0.24        0.11
(Free)E + p*V (eV/cell)     -896.5514
Target enthalpy (eV/cell)     -900.6460

siesta: Stress tensor (static) (eV/Ang**3):
        -0.001758   -0.000020    0.000167
        -0.000020    0.000016    0.000031
         0.000167    0.000031    0.000051

siesta: Pressure (static):          0.90279687  kBar

siesta: Stress tensor (total) (eV/Ang**3):
        -0.011907    0.000068    0.000149
         0.000068   -0.000256   -0.000037
         0.000149   -0.000037   -0.000121

siesta: Pressure (total):          6.56045094  kBar

siesta: Temp_ion =   13734.168 K

                     ====================================
                        Begin MD step =      6
                     ====================================

outcell: Unit cell vectors (Ang):
       10.000000    0.000000    0.000000
        0.000000   10.000000    0.000000
        0.000000    0.000000   10.000000

outcell: Cell vector modules (Ang)   :   10.000000   10.000000   10.000000
outcell: Cell angles (23,13,12) (deg):     90.0000     90.0000     90.0000
outcell: Cell volume (Ang**3)        :   1000.0000
Gamma-point calculation with multiply-connected orbital pairs
Gamma-point calculation with multiply-connected orbital pairs
Folding of H and S implicitly performed
Folding of H and S implicitly performed
<dSpData1D:S at geom step 6
  <sparsity:sparsity for geom step 6
    nrows_g=36 nrows=36 sparsity=.9552 nnzs=1238, refcount: 7>
  <dData1D:(new from dSpData1D) n=1238, refcount: 1>
refcount: 1>
new_DM -- step:     6
Re-using DM from previous geometries...
Number of DMs in history: 1
 DM extrapolation coefficients: 
1   1.00000
New DM after history re-use:
<dSpData2D:SpM extrapolated using coords
  <sparsity:sparsity for geom step 6
    nrows_g=36 nrows=36 sparsity=.9552 nnzs=1238, refcount: 9>
  <dData2D:(temp array for extrapolation) n=1238 m=1, refcount: 1>
refcount: 1>
No. of atoms with KB's overlaping orbs in proc 0. Max # of overlaps:       4      30
New grid distribution:   1
           1       1:   45    1:   45    1:   45

InitMesh: MESH =    90 x    90 x    90 =      729000
InitMesh: (bp) =    45 x    45 x    45 =       91125
InitMesh: Mesh cutoff (required, used) =   200.000   223.865 Ry
ExtMesh (bp) on 0 =   117 x   117 x   117 =     1601613
PhiOnMesh: Number of (b)points on node 0 =                91125
PhiOnMesh: nlist on node 0 =               451253

        iscf     Eharris(eV)        E_KS(eV)     FreeEng(eV)     dDmax    Ef(eV) dHmax(eV)
   scf:    1     -900.472327     -900.566551     -900.635862  0.484293 -6.568453  0.156487
   scf:    2     -900.547403     -900.560775     -900.629604  0.077871 -6.690127  0.229812
   scf:    3     -900.569084     -900.566161     -900.635409  0.036592 -6.633169  0.060738
   scf:    4     -900.566093     -900.566853     -900.636159  0.026314 -6.640323  0.021418
   scf:    5     -900.566942     -900.566974     -900.636288  0.008413 -6.640551  0.015468
   scf:    6     -900.566962     -900.566972     -900.636287  0.002120 -6.643440  0.013442
   scf:    7     -900.566981     -900.566978     -900.636293  0.006036 -6.642880  0.000769
   scf:    8     -900.566978     -900.566978     -900.636293  0.000274 -6.642665  0.000982

SCF Convergence by DM+H criterion
max |DM_out - DM_in|         :     0.0002744301
max |H_out - H_in|      (eV) :     0.0009817745
SCF cycle converged after 8 iterations

Using DM_out to compute the final energy and forces
No. of atoms with KB's overlaping orbs in proc 0. Max # of overlaps:       4      30

siesta: E_KS(eV) =             -900.5670

siesta: Atomic forces (eV/Ang):
----------------------------------------
   Tot    0.011604   -0.000402    0.000542
----------------------------------------
   Max    1.994304
   Res    0.915608    sqrt( Sum f_i^2 / 3N )
----------------------------------------
   Max    1.994304    constrained

Stress tensor Voigt[x,y,z,yz,xz,xy] (kbar):      -19.02       -0.37       -0.08        0.02        0.48        0.15
(Free)E + p*V (eV/cell)     -896.5841
Target enthalpy (eV/cell)     -900.6363

siesta: Stress tensor (static) (eV/Ang**3):
        -0.001728    0.000017    0.000293
         0.000017    0.000036    0.000070
         0.000293    0.000070    0.000109

siesta: Pressure (static):          0.84498313  kBar

siesta: Stress tensor (total) (eV/Ang**3):
        -0.011872    0.000091    0.000298
         0.000091   -0.000233    0.000010
         0.000298    0.000010   -0.000051

siesta: Pressure (total):          6.49242139  kBar

siesta: Temp_ion =   13712.835 K

                     ====================================
                        Begin MD step =      7
                     ====================================

outcell: Unit cell vectors (Ang):
       10.000000    0.000000    0.000000
        0.000000   10.000000    0.000000
        0.000000    0.000000   10.000000

outcell: Cell vector modules (Ang)   :   10.000000   10.000000   10.000000
outcell: Cell angles (23,13,12) (deg):     90.0000     90.0000     90.0000
outcell: Cell volume (Ang**3)        :   1000.0000
Gamma-point calculation with multiply-connected orbital pairs
Gamma-point calculation with multiply-connected orbital pairs
Folding of H and S implicitly performed
Folding of H and S implicitly performed
<dSpData1D:S at geom step 7
  <sparsity:sparsity for geom step 7
    nrows_g=36 nrows=36 sparsity=.9784 nnzs=1268, refcount: 7>
  <dData1D:(new from dSpData1D) n=1268, refcount: 1>
refcount: 1>
new_DM -- step:     7
Re-using DM from previous geometries...
Number of DMs in history: 1
 DM extrapolation coefficients: 
1   1.00000
New DM after history re-use:
<dSpData2D:SpM extrapolated using coords
  <sparsity:sparsity for geom step 7
    nrows_g=36 nrows=36 sparsity=.9784 nnzs=1268, refcount: 9>
  <dData2D:(temp array for extrapolation) n=1268 m=1, refcount: 1>
refcount: 1>
No. of atoms with KB's overlaping orbs in proc 0. Max # of overlaps:       4      34
New grid distribution:   1
           1       1:   45    1:   45    1:   45

InitMesh: MESH =    90 x    90 x    90 =      729000
InitMesh: (bp) =    45 x    45 x    45 =       91125
InitMesh: Mesh cutoff (required, used) =   200.000   223.865 Ry
ExtMesh (bp) on 0 =   117 x   117 x   117 =     1601613
PhiOnMesh: Number of (b)points on node 0 =                91125
PhiOnMesh: nlist on node 0 =               451211

        iscf     Eharris(eV)        E_KS(eV)     FreeEng(eV)     dDmax    Ef(eV) dHmax(eV)
   scf:    1     -900.594274     -900.575281     -900.644594  0.455860 -6.680361  0.073894
   scf:    2     -900.569399     -900.573504     -900.642664  0.048180 -6.621728  0.116155
   scf:    3     -900.576052     -900.575155     -900.644448  0.025937 -6.648895  0.030340
   scf:    4     -900.575276     -900.575398     -900.644711  0.017554 -6.646032  0.011244
   scf:    5     -900.575403     -900.575411     -900.644725  0.004007 -6.644843  0.007697
   scf:    6     -900.575409     -900.575410     -900.644724  0.000339 -6.644643  0.007768
   scf:    7     -900.575413     -900.575413     -900.644728  0.002075 -6.645029  0.000585
   scf:    8     -900.575413     -900.575413     -900.644728  0.000120 -6.645123  0.000832

SCF Convergence by DM+H criterion
max |DM_out - DM_in|         :     0.0001203220
max |H_out - H_in|      (eV) :     0.0008315442
SCF cycle converged after 8 iterations

Using DM_out to compute the final energy and forces
No. of atoms with KB's overlaping orbs in proc 0. Max # of overlaps:       4      34

siesta: E_KS(eV) =             -900.5754

siesta: Atomic forces (eV/Ang):
----------------------------------------
   Tot    0.012996    0.000141   -0.000104
----------------------------------------
   Max    1.952327
   Res    0.889082    sqrt( Sum f_i^2 / 3N )
----------------------------------------
   Max    1.952327    constrained

Stress tensor Voigt[x,y,z,yz,xz,xy] (kbar):      -19.17       -0.35        0.01        0.08        0.57        0.11
(Free)E + p*V (eV/cell)     -896.5860
Target enthalpy (eV/cell)     -900.6447

siesta: Stress tensor (static) (eV/Ang**3):
        -0.001800   -0.000003    0.000310
        -0.000003    0.000044    0.000090
         0.000310    0.000090    0.000138

siesta: Pressure (static):          0.86422883  kBar

siesta: Stress tensor (total) (eV/Ang**3):
        -0.011967    0.000066    0.000358
         0.000066   -0.000216    0.000050
         0.000358    0.000050    0.000007

siesta: Pressure (total):          6.50289527  kBar

siesta: Temp_ion =   13734.258 K

                     ====================================
                        Begin MD step =      8
                     ====================================

outcell: Unit cell vectors (Ang):
       10.000000    0.000000    0.000000
        0.000000   10.000000    0.000000
        0.000000    0.000000   10.000000

outcell: Cell vector modules (Ang)   :   10.000000   10.000000   10.000000
outcell: Cell angles (23,13,12) (deg):     90.0000     90.0000     90.0000
outcell: Cell volume (Ang**3)        :   1000.0000
Gamma-point calculation with multiply-connected orbital pairs
Gamma-point calculation with multiply-connected orbital pairs
Folding of H and S implicitly performed
Folding of H and S implicitly performed
<dSpData1D:S at geom step 8
  <sparsity:sparsity for geom step 8
    nrows_g=36 nrows=36 sparsity=.9784 nnzs=1268, refcount: 7>
  <dData1D:(new from dSpData1D) n=1268, refcount: 1>
refcount: 1>
new_DM -- step:     8
Re-using DM from previous geometries...
Number of DMs in history: 1
 DM extrapolation coefficients: 
1   1.00000
New DM after history re-use:
<dSpData2D:SpM extrapolated using coords
  <sparsity:sparsity for geom step 8
    nrows_g=36 nrows=36 sparsity=.9784 nnzs=1268, refcount: 9>
  <dData2D:(temp array for extrapolation) n=1268 m=1, refcount: 1>
refcount: 1>
No. of atoms with KB's overlaping orbs in proc 0. Max # of overlaps:       4      34
New grid distribution:   1
           1       1:   45    1:   45    1:   45

InitMesh: MESH =    90 x    90 x    90 =      729000
InitMesh: (bp) =    45 x    45 x    45 =       91125
InitMesh: Mesh cutoff (required, used) =   200.000   223.865 Ry
ExtMesh (bp) on 0 =   117 x   117 x   117 =     1601613
PhiOnMesh: Number of (b)points on node 0 =                91125
PhiOnMesh: nlist on node 0 =               451249

        iscf     Eharris(eV)        E_KS(eV)     FreeEng(eV)     dDmax    Ef(eV) dHmax(eV)
   scf:    1     -900.711884     -900.595823     -900.665136  0.433730 -6.795668  0.288541
   scf:    2     -900.582990     -900.592543     -900.661715  0.168602 -6.575949  0.387941
   scf:    3     -900.598884     -900.596601     -900.665898  0.081451 -6.680889  0.098935
   scf:    4     -900.595838     -900.596830     -900.666118  0.021190 -6.664692  0.030755
   scf:    5     -900.597078     -900.597116     -900.666431  0.012070 -6.668050  0.030945
   scf:    6     -900.596757     -900.597000     -900.666308  0.010528 -6.649709  0.055733
   scf:    7     -900.597136     -900.597127     -900.666441  0.016692 -6.664139  0.003358
   scf:    8     -900.597125     -900.597126     -900.666440  0.000667 -6.663384  0.003458
   scf:    9     -900.597127     -900.597127     -900.666442  0.001098 -6.662674  0.000362
   scf:   10     -900.597127     -900.597127     -900.666442  0.000085 -6.662627  0.000300

SCF Convergence by DM+H criterion
max |DM_out - DM_in|         :     0.0000845828
max |H_out - H_in|      (eV) :     0.0002997158
SCF cycle converged after 10 iterations

Using DM_out to compute the final energy and forces
No. of atoms with KB's overlaping orbs in proc 0. Max # of overlaps:       4      34

siesta: E_KS(eV) =             -900.5971

siesta: Atomic forces (eV/Ang):
----------------------------------------
   Tot    0.018112    0.000062    0.000150
----------------------------------------
   Max    1.729222
   Res    0.735521    sqrt( Sum f_i^2 / 3N )
----------------------------------------
   Max    1.729222    constrained

Stress tensor Voigt[x,y,z,yz,xz,xy] (kbar):      -19.45       -0.36       -0.00        0.08        0.44       -0.05
(Free)E + p*V (eV/cell)     -896.5453
Target enthalpy (eV/cell)     -900.6664

siesta: Stress tensor (static) (eV/Ang**3):
        -0.001907   -0.000088    0.000190
        -0.000088    0.000023    0.000063
         0.000190    0.000063    0.000096

siesta: Pressure (static):          0.95542460  kBar

siesta: Stress tensor (total) (eV/Ang**3):
        -0.012137   -0.000030    0.000274
        -0.000030   -0.000226    0.000047
         0.000274    0.000047   -0.000000

siesta: Pressure (total):          6.60289991  kBar

siesta: Temp_ion =   13783.291 K

                     ====================================
                        Begin MD step =      9
                     ====================================

outcell: Unit cell vectors (Ang):
       10.000000    0.000000    0.000000
        0.000000   10.000000    0.000000
        0.000000    0.000000   10.000000

outcell: Cell vector modules (Ang)   :   10.000000   10.000000   10.000000
outcell: Cell angles (23,13,12) (deg):     90.0000     90.0000     90.0000
outcell: Cell volume (Ang**3)        :   1000.0000
Gamma-point calculation with multiply-connected orbital pairs
Gamma-point calculation with multiply-connected orbital pairs
Folding of H and S implicitly performed
Folding of H and S implicitly performed
<dSpData1D:S at geom step 9
  <sparsity:sparsity for geom step 9
    nrows_g=36 nrows=36 sparsity=.9830 nnzs=1274, refcount: 7>
  <dData1D:(new from dSpData1D) n=1274, refcount: 1>
refcount: 1>
new_DM -- step:     9
Re-using DM from previous geometries...
Number of DMs in history: 1
 DM extrapolation coefficients: 
1   1.00000
New DM after history re-use:
<dSpData2D:SpM extrapolated using coords
  <sparsity:sparsity for geom step 9
    nrows_g=36 nrows=36 sparsity=.9830 nnzs=1274, refcount: 9>
  <dData2D:(temp array for extrapolation) n=1274 m=1, refcount: 1>
refcount: 1>
Note: For starting DM, Qtot, Tr[D*S] =         14.00000000         14.01472740
No. of atoms with KB's overlaping orbs in proc 0. Max # of overlaps:       4      34
New grid distribution:   1
           1       1:   45    1:   45    1:   45

InitMesh: MESH =    90 x    90 x    90 =      729000
InitMesh: (bp) =    45 x    45 x    45 =       91125
InitMesh: Mesh cutoff (required, used) =   200.000   223.865 Ry
ExtMesh (bp) on 0 =   117 x   117 x   117 =     1601613
PhiOnMesh: Number of (b)points on node 0 =                91125
PhiOnMesh: nlist on node 0 =               451262

        iscf     Eharris(eV)        E_KS(eV)     FreeEng(eV)     dDmax    Ef(eV) dHmax(eV)
   scf:    1     -900.761398     -900.602750     -900.672063  0.114843 -6.857790  0.356568
   scf:    2     -900.584103     -900.598079     -900.667178  0.202013 -6.586404  0.488862
   scf:    3     -900.607392     -900.604039     -900.673325  0.097373 -6.715549  0.121993
   scf:    4     -900.602973     -900.604387     -900.673667  0.035555 -6.696863  0.033538
   scf:    5     -900.604780     -900.604792     -900.674107  0.019014 -6.701681  0.034332
   scf:    6     -900.604347     -900.604644     -900.673951  0.010888 -6.681839  0.063144
   scf:    7     -900.604813     -900.604807     -900.674121  0.019777 -6.697272  0.005152
   scf:    8     -900.604804     -900.604805     -900.674120  0.000826 -6.696379  0.004853
   scf:    9     -900.604808     -900.604808     -900.674122  0.002128 -6.695078  0.000327
   scf:   10     -900.604808     -900.604808     -900.674122  0.000041 -6.695071  0.000320

SCF Convergence by DM+H criterion
max |DM_out - DM_in|         :     0.0000409915
max |H_out - H_in|      (eV) :     0.0003201987
SCF cycle converged after 10 iterations

Using DM_out to compute the final energy and forces
No. of atoms with KB's overlaping orbs in proc 0. Max # of overlaps:       4      34

siesta: E_KS(eV) =             -900.6048

siesta: Atomic forces (eV/Ang):
----------------------------------------
   Tot   -0.024802   -0.000079   -0.000030
----------------------------------------
   Max    1.365084
   Res    0.555524    sqrt( Sum f_i^2 / 3N )
----------------------------------------
   Max    1.365084    constrained

Stress tensor Voigt[x,y,z,yz,xz,xy] (kbar):      -19.51       -0.43       -0.15       -0.02        0.14       -0.27
(Free)E + p*V (eV/cell)     -896.4935
Target enthalpy (eV/cell)     -900.6741

siesta: Stress tensor (static) (eV/Ang**3):
        -0.001878   -0.000202   -0.000012
        -0.000202   -0.000029   -0.000015
        -0.000012   -0.000015   -0.000023

siesta: Pressure (static):          1.03060485  kBar

siesta: Stress tensor (total) (eV/Ang**3):
        -0.012177   -0.000166    0.000088
        -0.000167   -0.000271   -0.000013
         0.000088   -0.000013   -0.000094

siesta: Pressure (total):          6.69824230  kBar

siesta: Temp_ion =   13809.464 K

                     ====================================
                        Begin MD step =     10
                     ====================================

outcell: Unit cell vectors (Ang):
       10.000000    0.000000    0.000000
        0.000000   10.000000    0.000000
        0.000000    0.000000   10.000000

outcell: Cell vector modules (Ang)   :   10.000000   10.000000   10.000000
outcell: Cell angles (23,13,12) (deg):     90.0000     90.0000     90.0000
outcell: Cell volume (Ang**3)        :   1000.0000
Gamma-point calculation with multiply-connected orbital pairs
Gamma-point calculation with multiply-connected orbital pairs
Folding of H and S implicitly performed
Folding of H and S implicitly performed
<dSpData1D:S at geom step 10
  <sparsity:sparsity for geom step 10
    nrows_g=36 nrows=36 sparsity=.9877 nnzs=1280, refcount: 7>
  <dData1D:(new from dSpData1D) n=1280, refcount: 1>
refcount: 1>
new_DM -- step:    10
Re-using DM from previous geometries...
Number of DMs in history: 1
 DM extrapolation coefficients: 
1   1.00000
New DM after history re-use:
<dSpData2D:SpM extrapolated using coords
  <sparsity:sparsity for geom step 10
    nrows_g=36 nrows=36 sparsity=.9877 nnzs=1280, refcount: 9>
  <dData2D:(temp array for extrapolation) n=1280 m=1, refcount: 1>
refcount: 1>
No. of atoms with KB's overlaping orbs in proc 0. Max # of overlaps:       4      34
New grid distribution:   1
           1       1:   45    1:   45    1:   45

InitMesh: MESH =    90 x    90 x    90 =      729000
InitMesh: (bp) =    45 x    45 x    45 =       91125
InitMesh: Mesh cutoff (required, used) =   200.000   223.865 Ry
ExtMesh (bp) on 0 =   117 x   117 x   117 =     1601613
PhiOnMesh: Number of (b)points on node 0 =                91125
PhiOnMesh: nlist on node 0 =               451242

        iscf     Eharris(eV)        E_KS(eV)     FreeEng(eV)     dDmax    Ef(eV) dHmax(eV)
   scf:    1     -900.721803     -900.588504     -900.657808  0.697964 -6.832725  0.215287
   scf:    2     -900.549923     -900.576928     -900.645301  0.093975 -6.671631  0.303850
   scf:    3     -900.593794     -900.587917     -900.657118  0.055286 -6.749120  0.074439
   scf:    4     -900.587556     -900.589236     -900.658522  0.044387 -6.740610  0.024363
   scf:    5     -900.588494     -900.589321     -900.658623  0.024504 -6.735373  0.020340
   scf:    6     -900.589556     -900.589459     -900.658771  0.005164 -6.736923  0.012518
   scf:    7     -900.589529     -900.589524     -900.658838  0.009565 -6.738850  0.001215
   scf:    8     -900.589524     -900.589524     -900.658838  0.000405 -6.738957  0.001211
   scf:    9     -900.589523     -900.589524     -900.658838  0.000873 -6.738525  0.000750
   scf:   10     -900.589524     -900.589524     -900.658838  0.000148 -6.738397  0.000652

SCF Convergence by DM+H criterion
max |DM_out - DM_in|         :     0.0001477069
max |H_out - H_in|      (eV) :     0.0006518681
SCF cycle converged after 10 iterations

Using DM_out to compute the final energy and forces
No. of atoms with KB's overlaping orbs in proc 0. Max # of overlaps:       4      34

siesta: E_KS(eV) =             -900.5895

siesta: Atomic forces (eV/Ang):
----------------------------------------
   Tot    0.010039    0.000403   -0.000181
----------------------------------------
   Max    0.944226
   Res    0.431900    sqrt( Sum f_i^2 / 3N )
----------------------------------------
   Max    0.944226    constrained

Stress tensor Voigt[x,y,z,yz,xz,xy] (kbar):      -19.41       -0.51       -0.33       -0.14       -0.06       -0.36
(Free)E + p*V (eV/cell)     -896.4454
Target enthalpy (eV/cell)     -900.6588

siesta: Stress tensor (static) (eV/Ang**3):
        -0.001793   -0.000238   -0.000143
        -0.000238   -0.000077   -0.000092
        -0.000143   -0.000092   -0.000139

siesta: Pressure (static):          1.07240257  kBar

siesta: Stress tensor (total) (eV/Ang**3):
        -0.012116   -0.000226   -0.000037
        -0.000226   -0.000321   -0.000084
        -0.000037   -0.000084   -0.000204

siesta: Pressure (total):          6.75080233  kBar

siesta: Temp_ion =   13779.515 K

                     ====================================
                        Begin MD step =     11
                     ====================================

outcell: Unit cell vectors (Ang):
       10.000000    0.000000    0.000000
        0.000000   10.000000    0.000000
        0.000000    0.000000   10.000000

outcell: Cell vector modules (Ang)   :   10.000000   10.000000   10.000000
outcell: Cell angles (23,13,12) (deg):     90.0000     90.0000     90.0000
outcell: Cell volume (Ang**3)        :   1000.0000
Gamma-point calculation with multiply-connected orbital pairs
Gamma-point calculation with multiply-connected orbital pairs
Folding of H and S implicitly performed
Folding of H and S implicitly performed
<dSpData1D:S at geom step 11
  <sparsity:sparsity for geom step 11
    nrows_g=36 nrows=36 sparsity=.9877 nnzs=1280, refcount: 7>
  <dData1D:(new from dSpData1D) n=1280, refcount: 1>
refcount: 1>
new_DM -- step:    11
Re-using DM from previous geometries...
Number of DMs in history: 1
 DM extrapolation coefficients: 
1   1.00000
New DM after history re-use:
<dSpData2D:SpM extrapolated using coords
  <sparsity:sparsity for geom step 11
    nrows_g=36 nrows=36 sparsity=.9877 nnzs=1280, refcount: 9>
  <dData2D:(temp array for extrapolation) n=1280 m=1, refcount: 1>
refcount: 1>
No. of atoms with KB's overlaping orbs in proc 0. Max # of overlaps:       4      34
New grid distribution:   1
           1       1:   45    1:   45    1:   45

InitMesh: MESH =    90 x    90 x    90 =      729000
InitMesh: (bp) =    45 x    45 x    45 =       91125
InitMesh: Mesh cutoff (required, used) =   200.000   223.865 Ry
ExtMesh (bp) on 0 =   117 x   117 x   117 =     1601613
PhiOnMesh: Number of (b)points on node 0 =                91125
PhiOnMesh: nlist on node 0 =               451224

        iscf     Eharris(eV)        E_KS(eV)     FreeEng(eV)     dDmax    Ef(eV) dHmax(eV)
   scf:    1     -900.604332     -900.553799     -900.623060  0.995070 -6.754960  0.101134
   scf:    2     -900.383309     -900.500629     -900.565411  0.178913 -6.806809  0.333716
   scf:    3     -900.565850     -900.553576     -900.622830  0.142143 -6.767755  0.064403
   scf:    4     -900.551079     -900.553957     -900.623190  0.040065 -6.784604  0.041566
   scf:    5     -900.554872     -900.554564     -900.623863  0.011802 -6.782610  0.031007
   scf:    6     -900.554596     -900.554594     -900.623892  0.017750 -6.790740  0.014936
   scf:    7     -900.554443     -900.554524     -900.623813  0.002485 -6.789305  0.014250
   scf:    8     -900.554641     -900.554689     -900.624002  0.009866 -6.786603  0.002239
   scf:    9     -900.554692     -900.554692     -900.624005  0.001445 -6.786976  0.001108
   scf:   10     -900.554692     -900.554692     -900.624005  0.000359 -6.787250  0.001493
   scf:   11     -900.554692     -900.554692     -900.624005  0.000097 -6.787345  0.000945

SCF Convergence by DM+H criterion
max |DM_out - DM_in|         :     0.0000965138
max |H_out - H_in|      (eV) :     0.0009445400
SCF cycle converged after 11 iterations

Using DM_out to compute the final energy and forces
No. of atoms with KB's overlaping orbs in proc 0. Max # of overlaps:       4      34

siesta: E_KS(eV) =             -900.5547

siesta: Atomic forces (eV/Ang):
----------------------------------------
   Tot   -0.006551    0.000745    0.000520
----------------------------------------
   Max    0.497373
   Res    0.231053    sqrt( Sum f_i^2 / 3N )
----------------------------------------
   Max    0.497373    constrained

Stress tensor Voigt[x,y,z,yz,xz,xy] (kbar):      -18.78       -0.51       -0.31       -0.13        0.03       -0.22
(Free)E + p*V (eV/cell)     -896.5458
Target enthalpy (eV/cell)     -900.6240

siesta: Stress tensor (static) (eV/Ang**3):
        -0.001448   -0.000128   -0.000093
        -0.000128   -0.000064   -0.000079
        -0.000093   -0.000079   -0.000114

siesta: Pressure (static):          0.86791153  kBar

siesta: Stress tensor (total) (eV/Ang**3):
        -0.011723   -0.000135    0.000017
        -0.000135   -0.000318   -0.000080
         0.000017   -0.000080   -0.000194

siesta: Pressure (total):          6.53399625  kBar

siesta: Temp_ion =   13682.673 K

                     ====================================
                        Begin MD step =     12
                     ====================================

outcell: Unit cell vectors (Ang):
       10.000000    0.000000    0.000000
        0.000000   10.000000    0.000000
        0.000000    0.000000   10.000000

outcell: Cell vector modules (Ang)   :   10.000000   10.000000   10.000000
outcell: Cell angles (23,13,12) (deg):     90.0000     90.0000     90.0000
outcell: Cell volume (Ang**3)        :   1000.0000
Gamma-point calculation with multiply-connected orbital pairs
Gamma-point calculation with multiply-connected orbital pairs
Folding of H and S implicitly performed
Folding of H and S implicitly performed
<dSpData1D:S at geom step 12
  <sparsity:sparsity for geom step 12
    nrows_g=36 nrows=36 sparsity=.9954 nnzs=1290, refcount: 7>
  <dData1D:(new from dSpData1D) n=1290, refcount: 1>
refcount: 1>
new_DM -- step:    12
Re-using DM from previous geometries...
Number of DMs in history: 1
 DM extrapolation coefficients: 
1   1.00000
New DM after history re-use:
<dSpData2D:SpM extrapolated using coords
  <sparsity:sparsity for geom step 12
    nrows_g=36 nrows=36 sparsity=.9954 nnzs=1290, refcount: 9>
  <dData2D:(temp array for extrapolation) n=1290 m=1, refcount: 1>
refcount: 1>
Note: For starting DM, Qtot, Tr[D*S] =         14.00000000         13.97313899
No. of atoms with KB's overlaping orbs in proc 0. Max # of overlaps:       4      35
New grid distribution:   1
           1       1:   45    1:   45    1:   45

InitMesh: MESH =    90 x    90 x    90 =      729000
InitMesh: (bp) =    45 x    45 x    45 =       91125
InitMesh: Mesh cutoff (required, used) =   200.000   223.865 Ry
ExtMesh (bp) on 0 =   117 x   117 x   117 =     1601613
PhiOnMesh: Number of (b)points on node 0 =                91125
PhiOnMesh: nlist on node 0 =               451083

        iscf     Eharris(eV)        E_KS(eV)     FreeEng(eV)     dDmax    Ef(eV) dHmax(eV)
   scf:    1     -900.379263     -900.450732     -900.519740  1.224901 -6.700180  0.454468
   scf:    2     -899.565796     -900.176774     -900.225753  0.380451 -6.936747  1.405687
   scf:    3     -900.520642     -900.451304     -900.520320  0.297294 -6.756540  0.243438
   scf:    4     -900.229663     -900.392636     -900.455644  0.230004 -6.853670  0.196980
   scf:    5     -900.394247     -900.393445     -900.456535  0.010034 -6.862457  0.214172
   scf:    6     -900.477109     -900.452898     -900.521716  0.133477 -6.844071  0.058449
   scf:    7     -900.453141     -900.456605     -900.525912  0.060624 -6.851325  0.044269
   scf:    8     -900.455908     -900.456857     -900.526118  0.023774 -6.835351  0.014845
   scf:    9     -900.456983     -900.457049     -900.526357  0.011116 -6.838122  0.002716
   scf:   10     -900.457029     -900.457049     -900.526348  0.003566 -6.837295  0.003398
   scf:   11     -900.457047     -900.457054     -900.526360  0.002230 -6.837992  0.002163
   scf:   12     -900.457054     -900.457054     -900.526360  0.000213 -6.837936  0.002144
   scf:   13     -900.457054     -900.457054     -900.526360  0.000241 -6.837921  0.002252
   scf:   14     -900.457054     -900.457054     -900.526360  0.000087 -6.837931  0.002210
   scf:   15     -900.457054     -900.457054     -900.526360  0.000474 -6.838272  0.000145
   scf:   16     -900.457054     -900.457054     -900.526360  0.000005 -6.838272  0.000143

SCF Convergence by DM+H criterion
max |DM_out - DM_in|         :     0.0000049805
max |H_out - H_in|      (eV) :     0.0001433514
SCF cycle converged after 16 iterations

Using DM_out to compute the final energy and forces
No. of atoms with KB's overlaping orbs in proc 0. Max # of overlaps:       4      35

siesta: E_KS(eV) =             -900.4571

siesta: Atomic forces (eV/Ang):
----------------------------------------
   Tot   -0.003717    0.000473    0.000676
----------------------------------------
   Max    0.573101
   Res    0.247792    sqrt( Sum f_i^2 / 3N )
----------------------------------------
   Max    0.573101    constrained

Stress tensor Voigt[x,y,z,yz,xz,xy] (kbar):      -18.84       -0.39       -0.03        0.05        0.31        0.12
(Free)E + p*V (eV/cell)     -896.5186
Target enthalpy (eV/cell)     -900.5264

siesta: Stress tensor (static) (eV/Ang**3):
        -0.001596    0.000093    0.000084
         0.000093    0.000023    0.000047
         0.000084    0.000047    0.000085

siesta: Pressure (static):          0.79490374  kBar

siesta: Stress tensor (total) (eV/Ang**3):
        -0.011759    0.000074    0.000196
         0.000074   -0.000245    0.000030
         0.000196    0.000030   -0.000019

siesta: Pressure (total):          6.42116772  kBar

siesta: Temp_ion =   13418.669 K

                     ====================================
                        Begin MD step =     13
                     ====================================

outcell: Unit cell vectors (Ang):
       10.000000    0.000000    0.000000
        0.000000   10.000000    0.000000
        0.000000    0.000000   10.000000

outcell: Cell vector modules (Ang)   :   10.000000   10.000000   10.000000
outcell: Cell angles (23,13,12) (deg):     90.0000     90.0000     90.0000
outcell: Cell volume (Ang**3)        :   1000.0000
Gamma-point calculation with multiply-connected orbital pairs
Gamma-point calculation with multiply-connected orbital pairs
Folding of H and S implicitly performed
Folding of H and S implicitly performed
<dSpData1D:S at geom step 13
  <sparsity:sparsity for geom step 13
    nrows_g=36 nrows=36 sparsity=.9954 nnzs=1290, refcount: 7>
  <dData1D:(new from dSpData1D) n=1290, refcount: 1>
refcount: 1>
new_DM -- step:    13
Re-using DM from previous geometries...
Number of DMs in history: 1
 DM extrapolation coefficients: 
1   1.00000
New DM after history re-use:
<dSpData2D:SpM extrapolated using coords
  <sparsity:sparsity for geom step 13
    nrows_g=36 nrows=36 sparsity=.9954 nnzs=1290, refcount: 9>
  <dData2D:(temp array for extrapolation) n=1290 m=1, refcount: 1>
refcount: 1>
Note: For starting DM, Qtot, Tr[D*S] =         14.00000000         13.95960726
No. of atoms with KB's overlaping orbs in proc 0. Max # of overlaps:       4      35
New grid distribution:   1
           1       1:   45    1:   45    1:   45

InitMesh: MESH =    90 x    90 x    90 =      729000
InitMesh: (bp) =    45 x    45 x    45 =       91125
InitMesh: Mesh cutoff (required, used) =   200.000   223.865 Ry
ExtMesh (bp) on 0 =   117 x   117 x   117 =     1601613
PhiOnMesh: Number of (b)points on node 0 =                91125
PhiOnMesh: nlist on node 0 =               451122

        iscf     Eharris(eV)        E_KS(eV)     FreeEng(eV)     dDmax    Ef(eV) dHmax(eV)
   scf:    1     -899.943386     -900.198616     -900.266122  1.385183 -6.704606  0.736544
   scf:    2     -897.866309     -899.496941     -899.511147  0.597234 -7.016360  2.526722
   scf:    3     -900.412181     -900.199062     -900.267030  0.419237 -6.772152  0.348178
   scf:    4     -900.192517     -900.195843     -900.263574  0.007051 -6.771131  0.357698
   scf:    5     -899.342852     -899.980010     -900.022835  0.442864 -6.904612  0.414624
   scf:    6     -900.156418     -900.073844     -900.127127  0.072216 -6.882187  0.288502
   scf:    7     -899.222890     -900.007754     -900.058837  0.575851 -6.889573  0.339915
   scf:    8     -899.763738     -899.891825     -899.930981  0.075953 -6.885538  0.420479
   scf:    9     -900.327868     -900.166750     -900.232053  0.229620 -6.891804  0.184773
   scf:   10     -899.431261     -899.863372     -899.899326  0.247000 -6.874156  0.413993
   scf:   11     -900.321455     -900.209952     -900.278574  0.329176 -6.878230  0.077421
   scf:   12     -900.136222     -900.204448     -900.271399  0.169651 -6.880229  0.096358
   scf:   13     -900.223868     -900.223006     -900.292244  0.089988 -6.879266  0.004738
   scf:   14     -900.221856     -900.222670     -900.291979  0.014487 -6.879246  0.011596
   scf:   15     -900.222769     -900.222994     -900.292223  0.016047 -6.879262  0.005291
   scf:   16     -900.222933     -900.222966     -900.292182  0.001549 -6.879465  0.006385
   scf:   17     -900.222995     -900.223015     -900.292275  0.005674 -6.879294  0.002262
   scf:   18     -900.223012     -900.223014     -900.292276  0.000349 -6.879564  0.002261
   scf:   19     -900.223011     -900.223013     -900.292276  0.000205 -6.879698  0.002173
   scf:   20     -900.223012     -900.223013     -900.292276  0.000672 -6.879942  0.000832
   scf:   21     -900.223012     -900.223012     -900.292276  0.000059 -6.880004  0.000690

SCF Convergence by DM+H criterion
max |DM_out - DM_in|         :     0.0000586560
max |H_out - H_in|      (eV) :     0.0006897489
SCF cycle converged after 21 iterations

Using DM_out to compute the final energy and forces
No. of atoms with KB's overlaping orbs in proc 0. Max # of overlaps:       4      35

siesta: E_KS(eV) =             -900.2230

siesta: Atomic forces (eV/Ang):
----------------------------------------
   Tot    0.028892    0.001215    0.001011
----------------------------------------
   Max    1.541741
   Res    0.642391    sqrt( Sum f_i^2 / 3N )
----------------------------------------
   Max    1.541741    constrained

Stress tensor Voigt[x,y,z,yz,xz,xy] (kbar):      -20.29       -0.26        0.33        0.28        0.54        0.46
(Free)E + p*V (eV/cell)     -896.0861
Target enthalpy (eV/cell)     -900.2923

siesta: Stress tensor (static) (eV/Ang**3):
        -0.002714    0.000311    0.000228
         0.000311    0.000111    0.000195
         0.000228    0.000195    0.000316

siesta: Pressure (static):          1.22146131  kBar

siesta: Stress tensor (total) (eV/Ang**3):
        -0.012665    0.000285    0.000338
         0.000285   -0.000161    0.000175
         0.000339    0.000175    0.000208

siesta: Pressure (total):          6.73916776  kBar

siesta: Temp_ion =   12792.592 K

                     ====================================
                        Begin MD step =     14
                     ====================================

outcell: Unit cell vectors (Ang):
       10.000000    0.000000    0.000000
        0.000000   10.000000    0.000000
        0.000000    0.000000   10.000000

outcell: Cell vector modules (Ang)   :   10.000000   10.000000   10.000000
outcell: Cell angles (23,13,12) (deg):     90.0000     90.0000     90.0000
outcell: Cell volume (Ang**3)        :   1000.0000
<dSpData1D:S at geom step 14
  <sparsity:sparsity for geom step 14
    nrows_g=36 nrows=36 sparsity=1.0000 nnzs=1296, refcount: 7>
  <dData1D:(new from dSpData1D) n=1296, refcount: 1>
refcount: 1>
new_DM -- step:    14
Re-using DM from previous geometries...
Number of DMs in history: 1
 DM extrapolation coefficients: 
1   1.00000
New DM after history re-use:
<dSpData2D:SpM extrapolated using coords
  <sparsity:sparsity for geom step 14
    nrows_g=36 nrows=36 sparsity=1.0000 nnzs=1296, refcount: 9>
  <dData2D:(temp array for extrapolation) n=1296 m=1, refcount: 1>
refcount: 1>
Note: For starting DM, Qtot, Tr[D*S] =         14.00000000         13.94773808
No. of atoms with KB's overlaping orbs in proc 0. Max # of overlaps:       4      36
New grid distribution:   1
           1       1:   45    1:   45    1:   45

InitMesh: MESH =    90 x    90 x    90 =      729000
InitMesh: (bp) =    45 x    45 x    45 =       91125
InitMesh: Mesh cutoff (required, used) =   200.000   223.865 Ry
ExtMesh (bp) on 0 =   117 x   117 x   117 =     1601613
PhiOnMesh: Number of (b)points on node 0 =                91125
PhiOnMesh: nlist on node 0 =               451174

        iscf     Eharris(eV)        E_KS(eV)     FreeEng(eV)     dDmax    Ef(eV) dHmax(eV)
   scf:    1     -899.099137     -899.702718     -899.763073  0.979426 -6.739313  0.929208
   scf:    2     -896.243259     -898.744286     -898.744966  0.701535 -7.010890  3.347584
   scf:    3     -900.054265     -899.703947     -899.768946  0.380723 -6.797037  0.387752
   scf:    4     -899.710362     -899.707171     -899.772400  0.003741 -6.797636  0.379836
   scf:    5     -898.108056     -899.340095     -899.345832  0.602464 -6.915674  0.730707
   scf:    6     -899.481333     -899.412337     -899.431657  0.035959 -6.885811  0.612065
   scf:    7     -899.267590     -899.341462     -899.347659  0.035341 -6.898939  0.745769
   scf:    8     -897.111608     -899.217736     -899.233233  0.903385 -6.882062  0.684915
   scf:    9     -899.235272     -899.226521     -899.243294  0.003751 -6.884159  0.674736
   scf:   10     -899.947400     -899.669408     -899.731710  0.257669 -6.882376  0.320910
   scf:   11     -899.695607     -899.682712     -899.746029  0.012806 -6.882382  0.303748
   scf:   12     -899.092896     -899.634434     -899.684262  0.451623 -6.887839  0.353309
   scf:   13     -899.799406     -899.728206     -899.789288  0.095028 -6.882552  0.201101
   scf:   14     -899.796063     -899.768302     -899.834440  0.071041 -6.883622  0.106193
   scf:   15     -899.591439     -899.694842     -899.751934  0.110753 -6.881143  0.261894
   scf:   16     -899.781665     -899.783840     -899.852845  0.192889 -6.880603  0.025865
   scf:   17     -899.783592     -899.783785     -899.852662  0.009790 -6.877288  0.043538
   scf:   18     -899.783565     -899.783803     -899.852846  0.013357 -6.890405  0.010719
   scf:   19     -899.783745     -899.783845     -899.852759  0.008402 -6.888464  0.011219
   scf:   20     -899.766062     -899.777695     -899.845218  0.047332 -6.879884  0.080208
   scf:   21     -899.785017     -899.783790     -899.852651  0.044380 -6.890276  0.017684
   scf:   22     -899.783655     -899.783831     -899.852860  0.009304 -6.892178  0.008648
   scf:   23     -899.783877     -899.783862     -899.852858  0.003566 -6.893033  0.003939
   scf:   24     -899.783839     -899.783852     -899.852863  0.001047 -6.893467  0.002530
   scf:   25     -899.783838     -899.783845     -899.852865  0.001469 -6.894353  0.002404
   scf:   26     -899.783855     -899.783850     -899.852865  0.000317 -6.894213  0.002222
   scf:   27     -899.783846     -899.783848     -899.852866  0.000336 -6.894173  0.002118
   scf:   28     -899.783849     -899.783849     -899.852865  0.000211 -6.894454  0.001796
   scf:   29     -899.783849     -899.783849     -899.852865  0.000145 -6.894575  0.001643
   scf:   30     -899.783849     -899.783849     -899.852866  0.000131 -6.894624  0.001482
   scf:   31     -899.783844     -899.783847     -899.852866  0.000322 -6.894570  0.000149
   scf:   32     -899.783846     -899.783846     -899.852866  0.000019 -6.894571  0.000137

SCF Convergence by DM+H criterion
max |DM_out - DM_in|         :     0.0000191438
max |H_out - H_in|      (eV) :     0.0001367100
SCF cycle converged after 32 iterations

Using DM_out to compute the final energy and forces
No. of atoms with KB's overlaping orbs in proc 0. Max # of overlaps:       4      36

siesta: E_KS(eV) =             -899.7838

siesta: Atomic forces (eV/Ang):
----------------------------------------
   Tot   -0.090640    0.002569    0.003144
----------------------------------------
   Max    2.746309
   Res    1.051452    sqrt( Sum f_i^2 / 3N )
----------------------------------------
[...]
   scf:   35     -897.261108     -897.261106     -897.319716  0.000428 -6.883095  0.002877
   scf:   36     -897.261120     -897.261113     -897.319717  0.000111 -6.883245  0.002763
   scf:   37     -897.261149     -897.261132     -897.319720  0.000973 -6.884552  0.002316
   scf:   38     -897.261134     -897.261133     -897.319720  0.000105 -6.884573  0.002234
   scf:   39     -897.261146     -897.261140     -897.319721  0.000277 -6.884505  0.002039
   scf:   40     -897.261133     -897.261136     -897.319721  0.000085 -6.884569  0.002086
   scf:   41     -897.261101     -897.261119     -897.319721  0.000169 -6.884772  0.001855
   scf:   42     -897.261078     -897.261098     -897.319721  0.000368 -6.885098  0.001507
   scf:   43     -897.261109     -897.261104     -897.319721  0.000187 -6.885138  0.001243
   scf:   44     -897.261112     -897.261108     -897.319721  0.000166 -6.885148  0.001027
   scf:   45     -897.261114     -897.261111     -897.319721  0.000138 -6.885037  0.000714

SCF Convergence by DM+H criterion
max |DM_out - DM_in|         :     0.0001375099
max |H_out - H_in|      (eV) :     0.0007138659
SCF cycle converged after 45 iterations

Using DM_out to compute the final energy and forces
No. of atoms with KB's overlaping orbs in proc 0. Max # of overlaps:       4      36

siesta: E_KS(eV) =             -897.2611

siesta: Atomic forces (eV/Ang):
----------------------------------------
   Tot   -0.007003   -0.000485   -0.001437
----------------------------------------
   Max    3.613167
   Res    1.520458    sqrt( Sum f_i^2 / 3N )
----------------------------------------
   Max    3.613167    constrained

Stress tensor Voigt[x,y,z,yz,xz,xy] (kbar):       11.11        1.22        2.27        0.51        4.28        3.78
(Free)E + p*V (eV/cell)     -900.3566
Target enthalpy (eV/cell)     -897.3197

siesta: Stress tensor (static) (eV/Ang**3):
         0.009655    0.003588    0.001642
         0.003588    0.001885   -0.000347
         0.001642   -0.000347    0.001951

siesta: Pressure (static):         -7.20499479  kBar

siesta: Stress tensor (total) (eV/Ang**3):
         0.006934    0.002360    0.002672
         0.002360    0.000761    0.000319
         0.002672    0.000319    0.001416

siesta: Pressure (total):         -4.86564764  kBar

siesta: Temp_ion =    5218.300 K

                     ====================================
                        Begin MD step =     99
                     ====================================

outcell: Unit cell vectors (Ang):
       10.000000    0.000000    0.000000
        0.000000   10.000000    0.000000
        0.000000    0.000000   10.000000

outcell: Cell vector modules (Ang)   :   10.000000   10.000000   10.000000
outcell: Cell angles (23,13,12) (deg):     90.0000     90.0000     90.0000
outcell: Cell volume (Ang**3)        :   1000.0000
<dSpData1D:S at geom step 99
  <sparsity:sparsity for geom step 99
    nrows_g=36 nrows=36 sparsity=1.0000 nnzs=1296, refcount: 7>
  <dData1D:(new from dSpData1D) n=1296, refcount: 1>
refcount: 1>
new_DM -- step:    99
Re-using DM from previous geometries...
Number of DMs in history: 1
 DM extrapolation coefficients: 
1   1.00000
New DM after history re-use:
<dSpData2D:SpM extrapolated using coords
  <sparsity:sparsity for geom step 99
    nrows_g=36 nrows=36 sparsity=1.0000 nnzs=1296, refcount: 9>
  <dData2D:(temp array for extrapolation) n=1296 m=1, refcount: 1>
refcount: 1>
No. of atoms with KB's overlaping orbs in proc 0. Max # of overlaps:       4      36
New grid distribution:   1
           1       1:   45    1:   45    1:   45

InitMesh: MESH =    90 x    90 x    90 =      729000
InitMesh: (bp) =    45 x    45 x    45 =       91125
InitMesh: Mesh cutoff (required, used) =   200.000   223.865 Ry
ExtMesh (bp) on 0 =   117 x   117 x   117 =     1601613
PhiOnMesh: Number of (b)points on node 0 =                91125
PhiOnMesh: nlist on node 0 =               451241

        iscf     Eharris(eV)        E_KS(eV)     FreeEng(eV)     dDmax    Ef(eV) dHmax(eV)
   scf:    1     -889.542804     -894.821055     -894.880983  2.140439 -6.866270  7.064643
   scf:    2     -748.705406     -851.018082     -851.032377  2.641488 -7.115022 38.548866
   scf:    3     -912.895564     -893.851776     -893.853007  1.639816 -7.326130  9.850181
   scf:    4     -884.089988     -894.606757     -894.668957  3.419934 -6.841602  7.511560
   scf:    5     -893.314792     -896.696107     -896.715632  2.845479 -7.061620  3.785118
   scf:    6     -896.457418     -896.582402     -896.602930  0.041023 -7.068977  4.206641
   scf:    7     -897.290065     -896.989265     -897.034044  0.419970 -6.953917  2.628643
   scf:    8     -897.178076     -897.254548     -897.314978  0.642559 -6.893144  0.366464
   scf:    9     -897.255302     -897.255084     -897.314967  0.019647 -6.892723  0.319800
   scf:   10     -897.259282     -897.258921     -897.316230  0.064880 -6.894515  0.194293
   scf:   11     -897.231118     -897.257763     -897.317185  0.114047 -6.910497  0.282269
   scf:   12     -897.267217     -897.265024     -897.324040  0.044107 -6.905524  0.104856
   scf:   13     -897.261559     -897.263836     -897.324135  0.024429 -6.918403  0.069824
   scf:   14     -897.264117     -897.264009     -897.324273  0.004951 -6.921754  0.044099
   scf:   15     -897.265965     -897.265075     -897.324718  0.008870 -6.926560  0.032001
   scf:   16     -897.265687     -897.265397     -897.324760  0.005083 -6.929210  0.027344
   scf:   17     -897.265581     -897.265501     -897.324760  0.004441 -6.930481  0.017582
   scf:   18     -897.265100     -897.265309     -897.324765  0.003378 -6.930807  0.018201
   scf:   19     -897.265091     -897.265208     -897.324788  0.003428 -6.932539  0.015384
   scf:   20     -897.265021     -897.265118     -897.324782  0.002138 -6.933254  0.014770
   scf:   21     -897.265103     -897.265111     -897.324797  0.000985 -6.932961  0.014289
   scf:   22     -897.265561     -897.265372     -897.324929  0.005595 -6.932250  0.014244
   scf:   23     -897.265356     -897.265364     -897.324933  0.000366 -6.932276  0.013650
   scf:   24     -897.265192     -897.265280     -897.324935  0.002078 -6.932256  0.009213
   scf:   25     -897.265334     -897.265308     -897.324943  0.000869 -6.932598  0.008828
   scf:   26     -897.265285     -897.265296     -897.324942  0.000132 -6.932836  0.008360
   scf:   27     -897.265185     -897.265241     -897.324935  0.001057 -6.933924  0.006626
   scf:   28     -897.265496     -897.265373     -897.324948  0.001753 -6.934150  0.007219
   scf:   29     -897.265534     -897.265457     -897.324953  0.001931 -6.934984  0.007026
   scf:   30     -897.265389     -897.265427     -897.324964  0.002195 -6.936897  0.002424
   scf:   31     -897.265426     -897.265427     -897.324964  0.000045 -6.937005  0.002120
   scf:   32     -897.265393     -897.265410     -897.324964  0.000314 -6.937681  0.001290
   scf:   33     -897.265414     -897.265412     -897.324965  0.000205 -6.937897  0.001182
   scf:   34     -897.265444     -897.265428     -897.324965  0.000322 -6.937923  0.000739
   scf:   35     -897.265440     -897.265434     -897.324965  0.000231 -6.937980  0.000787

SCF Convergence by DM+H criterion
max |DM_out - DM_in|         :     0.0002305023
max |H_out - H_in|      (eV) :     0.0007868087
SCF cycle converged after 35 iterations

Using DM_out to compute the final energy and forces
No. of atoms with KB's overlaping orbs in proc 0. Max # of overlaps:       4      36

siesta: E_KS(eV) =             -897.2654

siesta: Atomic forces (eV/Ang):
----------------------------------------
   Tot    0.004792   -0.002555   -0.003209
----------------------------------------
   Max    3.171430
   Res    1.251391    sqrt( Sum f_i^2 / 3N )
----------------------------------------
   Max    3.171430    constrained

Stress tensor Voigt[x,y,z,yz,xz,xy] (kbar):        9.50        1.50        0.46        0.96        2.22        4.79
(Free)E + p*V (eV/cell)     -899.7079
Target enthalpy (eV/cell)     -897.3250

siesta: Stress tensor (static) (eV/Ang**3):
         0.008263    0.003757    0.000540
         0.003757    0.001902   -0.000198
         0.000540   -0.000198    0.001002

siesta: Pressure (static):         -5.96365419  kBar

siesta: Stress tensor (total) (eV/Ang**3):
         0.005927    0.002990    0.001385
         0.002990    0.000936    0.000599
         0.001384    0.000599    0.000285

siesta: Pressure (total):         -3.81790893  kBar

siesta: Temp_ion =    5190.274 K

                     ====================================
                        Begin MD step =    100
                     ====================================

outcell: Unit cell vectors (Ang):
       10.000000    0.000000    0.000000
        0.000000   10.000000    0.000000
        0.000000    0.000000   10.000000

outcell: Cell vector modules (Ang)   :   10.000000   10.000000   10.000000
outcell: Cell angles (23,13,12) (deg):     90.0000     90.0000     90.0000
outcell: Cell volume (Ang**3)        :   1000.0000
<dSpData1D:S at geom step 100
  <sparsity:sparsity for geom step 100
    nrows_g=36 nrows=36 sparsity=1.0000 nnzs=1296, refcount: 7>
  <dData1D:(new from dSpData1D) n=1296, refcount: 1>
refcount: 1>
new_DM -- step:   100
Re-using DM from previous geometries...
Number of DMs in history: 1
 DM extrapolation coefficients: 
1   1.00000
New DM after history re-use:
<dSpData2D:SpM extrapolated using coords
  <sparsity:sparsity for geom step 100
    nrows_g=36 nrows=36 sparsity=1.0000 nnzs=1296, refcount: 9>
  <dData2D:(temp array for extrapolation) n=1296 m=1, refcount: 1>
refcount: 1>
Note: For starting DM, Qtot, Tr[D*S] =         14.00000000         14.01634251
No. of atoms with KB's overlaping orbs in proc 0. Max # of overlaps:       4      36
New grid distribution:   1
           1       1:   45    1:   45    1:   45

InitMesh: MESH =    90 x    90 x    90 =      729000
InitMesh: (bp) =    45 x    45 x    45 =       91125
InitMesh: Mesh cutoff (required, used) =   200.000   223.865 Ry
ExtMesh (bp) on 0 =   117 x   117 x   117 =     1601613
PhiOnMesh: Number of (b)points on node 0 =                91125
PhiOnMesh: nlist on node 0 =               451344

        iscf     Eharris(eV)        E_KS(eV)     FreeEng(eV)     dDmax    Ef(eV) dHmax(eV)
   scf:    1     -892.822782     -895.908338     -895.974373  1.533255 -7.010838  5.004725
   scf:    2     -790.229834     -863.520922     -863.540951  2.793812 -7.415892 32.089521
   scf:    3     -907.740050     -894.925473     -894.927738  0.862022 -7.288331  7.991715
   scf:    4     -897.885647     -896.740274     -896.775492  0.763024 -7.121146  3.495686
   scf:    5     -894.252747     -896.568344     -896.637038  1.885727 -7.015856  3.439461
   scf:    6     -893.889321     -895.389160     -895.454477  0.828643 -6.889146  6.068335
   scf:    7     -897.040080     -896.292693     -896.361982  0.447574 -6.894550  4.275821
   scf:    8     -897.486141     -897.035117     -897.100589  0.692685 -6.922579  1.936416
   scf:    9     -896.980852     -897.183607     -897.233005  0.779296 -6.936648  0.815440
   scf:   10     -897.217647     -897.203221     -897.256247  0.049565 -6.931317  0.586604
   scf:   11     -897.224120     -897.217400     -897.274299  0.110289 -6.932361  0.253347
   scf:   12     -897.219385     -897.218821     -897.276787  0.040045 -6.931094  0.139908
   scf:   13     -897.218485     -897.218663     -897.276704  0.003688 -6.929514  0.151082
   scf:   14     -897.211780     -897.217536     -897.278250  0.053935 -6.947386  0.131577
   scf:   15     -897.217764     -897.218960     -897.278023  0.061711 -6.948352  0.151581
   scf:   16     -897.216495     -897.218309     -897.278737  0.039054 -6.950588  0.039486
   scf:   17     -897.220006     -897.219379     -897.278821  0.015369 -6.956429  0.063549
   scf:   18     -897.218850     -897.219189     -897.279002  0.015515 -6.957700  0.021619
   scf:   19     -897.218892     -897.219067     -897.279067  0.007640 -6.962882  0.008290
   scf:   20     -897.219153     -897.219112     -897.279074  0.001834 -6.963331  0.002496
   scf:   21     -897.219147     -897.219130     -897.279075  0.000776 -6.963271  0.001726
   scf:   22     -897.219121     -897.219126     -897.279075  0.000175 -6.963351  0.001903
   scf:   23     -897.219110     -897.219118     -897.279076  0.000633 -6.963813  0.001119
   scf:   24     -897.219126     -897.219122     -897.279076  0.000105 -6.963898  0.001092
   scf:   25     -897.219117     -897.219120     -897.279077  0.000532 -6.963998  0.000884
   scf:   26     -897.219120     -897.219120     -897.279077  0.000048 -6.963988  0.000822

SCF Convergence by DM+H criterion
max |DM_out - DM_in|         :     0.0000481743
max |H_out - H_in|      (eV) :     0.0008218395
SCF cycle converged after 26 iterations

Using DM_out to compute the final energy and forces
No. of atoms with KB's overlaping orbs in proc 0. Max # of overlaps:       4      36

siesta: E_KS(eV) =             -897.2191

siesta: Atomic forces (eV/Ang):
----------------------------------------
   Tot    0.007194    0.001836    0.005227
----------------------------------------
   Max    2.864592
   Res    1.545165    sqrt( Sum f_i^2 / 3N )
----------------------------------------
   Max    2.864592    constrained

Stress tensor Voigt[x,y,z,yz,xz,xy] (kbar):        6.14        1.80       -2.28        1.25       -0.93        5.46
(Free)E + p*V (eV/cell)     -898.4543
Target enthalpy (eV/cell)     -897.2791

siesta: Stress tensor (static) (eV/Ang**3):
         0.006113    0.003872   -0.001169
         0.003872    0.001934   -0.000066
        -0.001169   -0.000066   -0.000524

siesta: Pressure (static):         -4.01710083  kBar

siesta: Stress tensor (total) (eV/Ang**3):
         0.003829    0.003406   -0.000579
         0.003406    0.001122    0.000781
        -0.000578    0.000781   -0.001425

siesta: Pressure (total):         -1.88287945  kBar

siesta: Temp_ion =    5038.921 K

coxmol: Writing XMOL coordinates into file xoc.xyz                                                             

siesta: Program's energy decomposition (eV):
siesta: Ebs     =      -186.019843
siesta: Eions   =      1592.294315
siesta: Ena     =       382.681900
siesta: Ekin    =       631.331942
siesta: Enl     =       -92.612039
siesta: Eso     =         0.000000
siesta: Edftu   =         0.000000
siesta: DEna    =       -25.728153
siesta: DUscf   =         2.736579
siesta: DUext   =         0.000000
siesta: Exc     =      -203.335034
siesta: eta*DQ  =         0.000000
siesta: Emadel  =         0.000000
siesta: Emeta   =         0.000000
siesta: Emolmec =         0.000000
siesta: Ekinion =         1.953917
siesta: Eharris =      -895.265203
siesta: Etot    =      -895.265203
siesta: FreeEng =      -895.325160

siesta: Final energy (eV):
siesta:  Band Struct. =    -186.019843
siesta:       Kinetic =     631.331942
siesta:       Hartree =     853.221579
siesta:       Edftu   =       0.000000
siesta:       Eso     =       0.000000
siesta:    Ext. field =       0.000000
siesta:   Exch.-corr. =    -203.335034
siesta:  Ion-electron =   -2264.778789
siesta:       Ion-ion =      86.341182
siesta:       Ekinion =       1.953917
siesta:         Total =    -895.265203
siesta:         Fermi =      -6.963988

siesta: Atomic forces (eV/Ang):
siesta:      1    1.625230    1.053855   -0.448657
siesta:      2    2.221189   -0.675171    2.430430
siesta:      3   -0.974633    0.727721   -1.508747
siesta:      4   -2.864592   -1.104570   -0.467799
siesta: ----------------------------------------
siesta:    Tot    0.007194    0.001836    0.005227

siesta: Stress tensor (static) (eV/Ang**3):
siesta:     0.006113    0.003872   -0.001169
siesta:     0.003872    0.001934   -0.000066
siesta:    -0.001169   -0.000066   -0.000524

siesta: Cell volume =       1000.000000 Ang**3

siesta: Pressure (static):
siesta:                Solid            Molecule  Units
siesta:          -0.00002731         -0.00000018  Ry/Bohr**3
siesta:          -0.00250725         -0.00001694  eV/Ang**3
siesta:          -4.01710083         -0.02713995  kBar
(Free)E+ p_basis*V_orbitals  =        -895.070486
(Free)Eharris+ p_basis*V_orbitals  =        -895.070486

siesta: Electric dipole (a.u.)  =    0.876638    0.801692   -0.578128
siesta: Electric dipole (Debye) =    2.228193    2.037699   -1.469457

cite: Please see "xoc.bib" for an exhaustive BiBTeX file.
cite: Please clearly indicate Siesta version in published work: 4.1.5
cite: This calculation has made use of the following articles
cite: which are encouraged to be cited in a published work.
        Primary SIESTA paper
          DOI: www.doi.org/10.1088/0953-8984/14/11/302


timer: Elapsed wall time (sec) =    2356.074
timer: CPU execution times (sec):

Routine            Calls   Time/call    Tot.time        %
siesta                 1    6429.651    6429.651   100.00
Setup                  1       0.191       0.191     0.00
bands                  1       0.000       0.000     0.00
KSV_init               1       0.000       0.000     0.00
IterGeom             100      64.295    6429.450   100.00
state_init           100       0.004       0.413     0.01
hsparse              100       0.000       0.039     0.00
overlap              100       0.003       0.304     0.00
Setup_H0             100       0.705      70.528     1.10
naefs                200       0.000       0.007     0.00
MolMec               200       0.000       0.001     0.00
kinefsm              200       0.002       0.375     0.01
nlefsm               200       0.009       1.726     0.03
DHSCF_Init           100       0.688      68.792     1.07
DHSCF1               100       0.046       4.622     0.07
INITMESH             100       0.000       0.000     0.00
DHSCF2               100       0.642      64.169     1.00
REMESH               100       0.105      10.479     0.16
REORD               8668       0.006      54.378     0.85
PHION                100       0.421      42.065     0.65
COMM_BSC           14636       0.005      70.483     1.10
POISON              3684       0.454    1671.455    26.00
fft                 7368       0.167    1233.913    19.19
IterSCF             3384       1.842    6233.625    96.95
setup_H             3484       1.787    6224.796    96.81
DHSCF               3584       1.770    6343.350    98.66
DHSCF3              3584       1.751    6274.020    97.58
rhoofd              3584       0.475    1701.279    26.46
XC                  3584       0.655    2346.962    36.50
GXC-CellXC          3584       0.640    2292.866    35.66
cellXC              3584       0.640    2292.708    35.66
vmat                3584       0.031     111.678     1.74
compute_dm          3384       0.002       6.874     0.11
diagon              3384       0.002       6.679     0.10
r-eigvec            3384       0.001       2.579     0.04
r-buildHS           3384       0.000       0.033     0.00
rdiag               3384       0.001       2.454     0.04
rdiag1              3384       0.000       0.071     0.00
rdiag2              3384       0.000       0.119     0.00
rdiag3              3384       0.000       0.824     0.01
rdiag4              3384       0.000       1.231     0.02
r-buildD            3384       0.001       3.214     0.05
MIXER               3284       0.000       0.256     0.00
PostSCF              100       1.246     124.624     1.94
DHSCF4               100       0.693      69.294     1.08
dfscf                100       0.610      61.000     0.95
overfsm              100       0.001       0.072     0.00
state_analysis       100       0.000       0.047     0.00
siesta_move          100       0.002       0.153     0.00
Analysis               1       0.001       0.001     0.00
siesta_analysis        1       0.001       0.001     0.00
optical                1       0.000       0.000     0.00
  
>> End of run:  15-MAR-2024  11:57:38
Job completed
Job completed
